; ------------------- ANNEAL RUN (NPT) -------------------
integrator  = md            ; Algorithm (leap-frog)
tinit = 0.0                 ; Starting time [ps]
dt = 0.002                  ; Time step [ps]
nsteps = TOTALSTEP            ; Total number of steps - equivalent to TOTALTIME ps
nstenergy = 5000            ; Write energy every 10 ps
nstxout = 50000             ; Write coordinates every 100 ps

; Constraints
constraints = h-bonds       ; Applies to water and H-atoms in Emim ion
constraint-algorithm = LINCS ; Algorithm for constraint generation

; Thermostat & Barostat for NPT Ensemble
tcoupl  = v-rescale         ; similar to a langevin thermostat
tc-grps = system            ; one coupling group - all atoms
tau_t   = 0.1               ; time constant [ps]
ref_t = 350 ; reference temperature, one for each group [K]
pcoupl  =  C-rescale        ; Berendsen barostat
pcoupltype = isotropic      ; uniform scaling of box vectors
nstpcouple = 1              ; frequency to update pressure
tau_p   = 1.0               ; time constant [ps]
compressibility = 9.0e-5    ; isothermal compressibility of Emim-NTF2 [bar^-1]
ref_p   = 1.0               ; reference pressure, one for each group [bar]

; Simulated annealing
annealing = single          ; single temperature coupling group
annealing_npoints = 3       ; number of temperature points
annealing_time = 0 ANNTIME TOTALTIME ; time points for temperature changes - ramping at a rate of 5 K/ns
annealing_temp = 350 298 298 ; temperatures for each time point

; Non-bonded LJ interactions settings
rvdw            = 1.20      ; Short-range Van der Waals cut-off
vdwtype         = Switch    ; Treatment of long range Van der Waals interactions
rvdw-switch     = 1.18      ; Long range Van der Waals cut-off for switch function

; Electrostatics settings
coulombtype     = PME       ; Treatment of long range electrostatic interactions
fourierspacing  = 0.12      ; Grid spacing for FFT, 0.12 nm in k-space for 1.4 nm cut-off
rcoulomb        = 1.20      ; Short-range electrostatic cut-off
