;
;   File full_system.amb2gro/full_system.top  was generated
;   By user: fsalih (241262)
;   On host:d32cepyc220.crc.nd.edu 
;   At date:Tue. January  2 14:28:58 2025 
;
;   This is a standalone topology file
;
;   Created by:
;   ParmEd:       amb2gro_top_gro.py, VERSION4.3.0 
;   Executable:   amb2gro_top_gro.py
;   Library dir:  /usr/local/gromacs/share/gromacs/top
;   Command line:
;     /software01/a/amber/24.0/bin/amb2gro_top_gro.py -p full_system.prmtop -c full_system.inpcrd -t full_system.amb2gro/full_system.top -g full_system.amb2gro/full_system.gro -b full_system.amb2gro/full_system_gro.pdb
;

[ defaults ]
; nbfunc        comb-rule       gen-pairs       fudgeLJ fudgeQQ
1               2               yes             0.5          0.83333333  

[ atomtypes ]
; name    at.num    mass    charge ptype  sigma      epsilon
c3             6  12.010000  0.00000000  A     0.33996695      0.4577296
na             7  14.010000  0.00000000  A     0.32499985        0.71128
cc             6  12.010000  0.00000000  A     0.33996695       0.359824
cd             6  12.010000  0.00000000  A     0.33996695       0.359824
hc             1   1.008000  0.00000000  A     0.26495328      0.0656888
h1             1   1.008000  0.00000000  A      0.2471353      0.0656888
h4             1   1.008000  0.00000000  A     0.25105526        0.06276
h5             1   1.008000  0.00000000  A     0.24214627        0.06276
f              9  19.000000  0.00000000  A     0.31181455       0.255224
s6            16  32.060000  0.00000000  A     0.35635949          1.046
o              8  16.000000  0.00000000  A     0.29599219        0.87864
ne             7  14.010000  0.00000000  A     0.32499985        0.71128
sy            16  32.060000  0.00000000  A     0.35635949          1.046


[ moleculetype ]
; Name            nrexcl
C2M          3

[ atoms ]
;   nr       type  resnr residue  atom   cgnr    charge       mass  typeB    chargeB      massB
; residue    1 C2M rtp C2M q 1.0
    1         c3      1    C2M     C1      1 -0.12610000  12.010000   ; qtot -0.126100
    2         c3      1    C2M     C2      2 0.01830000  12.010000   ; qtot -0.107800
    3         na      1    C2M     N1      3 -0.01810000  14.010000   ; qtot -0.125900
    4         cc      1    C2M     C3      4 -0.11530000  12.010000   ; qtot -0.241200
    5         cd      1    C2M     C4      5 -0.12030000  12.010000   ; qtot -0.361500
    6         na      1    C2M     N2      6 -0.01710000  14.010000   ; qtot -0.378600
    7         cc      1    C2M     C5      7 -0.03460000  12.010000   ; qtot -0.413200
    8         c3      1    C2M     C6      8 -0.00540000  12.010000   ; qtot -0.418600
    9         hc      1    C2M     H1      9 0.07236700   1.008000   ; qtot -0.346233
   10         hc      1    C2M     H2     10 0.07236700   1.008000   ; qtot -0.273866
   11         hc      1    C2M     H3     11 0.07236700   1.008000   ; qtot -0.201499
   12         h1      1    C2M     H4     12 0.09520000   1.008000   ; qtot -0.106299
   13         h1      1    C2M     H5     13 0.09520000   1.008000   ; qtot -0.011099
   14         h4      1    C2M     H6     14 0.23300000   1.008000   ; qtot 0.221901
   15         h4      1    C2M     H7     15 0.23400000   1.008000   ; qtot 0.455901
   16         h5      1    C2M     H8     16 0.25600000   1.008000   ; qtot 0.711901
   17         h1      1    C2M     H9     17 0.09636700   1.008000   ; qtot 0.808268
   18         h1      1    C2M    H10     18 0.09636700   1.008000   ; qtot 0.904635
   19         h1      1    C2M    H11     19 0.09636700   1.008000   ; qtot 1.001002

[ bonds ]
;    ai     aj funct         c0         c1         c2         c3
      6      7     1   0.13802 356309.440000
      6      8     1   0.14629 274219.360000
      5      6     1   0.13802 356309.440000
      4      5     1   0.13729 419153.120000
      3      4     1   0.13802 356309.440000
      3      7     1   0.13802 356309.440000
      2      3     1   0.14629 274219.360000
      1      2     1   0.15375 251793.120000
      8     17     1   0.10969 276646.080000
      8     18     1   0.10969 276646.080000
      8     19     1   0.10969 276646.080000
      7     16     1   0.10819 294302.560000
      5     15     1   0.10817 294553.600000
      4     14     1   0.10817 294553.600000
      2     12     1   0.10969 276646.080000
      2     13     1   0.10969 276646.080000
      1      9     1   0.10969 276646.080000
      1     10     1   0.10969 276646.080000
      1     11     1   0.10969 276646.080000

[ pairs ]
;    ai     aj funct         c0         c1         c2         c3
      4      8     1
      3      8     1
      2      5     1
      2      6     1
      1      4     1
      1      7     1
     14     15     1
     11     12     1
     11     13     1
     10     12     1
     10     13     1
      9     12     1
      9     13     1
      8     15     1
      8     16     1
      7     12     1
      7     13     1
      7     14     1
      7     15     1
      7     17     1
      7     18     1
      7     19     1
      6     14     1
      5     16     1
      5     17     1
      5     18     1
      5     19     1
      4     12     1
      4     13     1
      4     16     1
      9      3     1
     10      3     1
     11      3     1
      3     15     1
      2     14     1
      2     16     1

[ angles ]
;    ai     aj     ak funct         c0         c1         c2         c3
      7      6      8     1   126.4600543 517.979200
      5      6      7     1   128.0100547 531.368000
      5      6      8     1   126.4600543 517.979200
      4      3      7     1   109.9000471 573.208000
      4      5      6     1   106.9900460 614.211200
      3      4      5     1   106.9900460 614.211200
      3      7      6     1   106.6000457 629.273600
      2      3      4     1   126.4600543 517.979200
      2      3      7     1   126.4600543 517.979200
      1      2      3     1   112.8800481 548.104000
     18      8     19     1   108.4600466 328.025600
     17      8     18     1   108.4600466 328.025600
     17      8     19     1   108.4600466 328.025600
     12      2     13     1   108.4600466 328.025600
     10      1     11     1   107.5800459 329.699200
      9      1     10     1   107.5800459 329.699200
      9      1     11     1   107.5800459 329.699200
      6      5     15     1   120.5300517 416.726400
      6      7     16     1   121.5500524 415.052800
      6      8     17     1   108.7800464 416.726400
      6      8     18     1   108.7800464 416.726400
      6      8     19     1   108.7800464 416.726400
      5      4     14     1   128.4800548 395.806400
      4      5     15     1   128.4800548 395.806400
      3      2     12     1   108.7800464 416.726400
      3      2     13     1   108.7800464 416.726400
      3      4     14     1   120.5300517 416.726400
      3      7     16     1   121.5500524 415.052800
      2      1      9     1   109.8000471 387.438400
      2      1     10     1   109.8000471 387.438400
      2      1     11     1   109.8000471 387.438400
      1      2     12     1   109.5600471 388.275200
      1      2     13     1   109.5600471 388.275200

[ dihedrals ]
;    ai     aj     ak     al funct         c0         c1         c2         c3         c4         c5
      5      4      3      7     1  180.0000771  7.1128000  2
      4      3      7      6     1  180.0000771  7.1128000  2
      4      5      6      7     1  180.0000771  7.1128000  2
      4      5      6      8     1  180.0000771  7.1128000  2
      3      4      5      6     1  180.0000771  16.7360000  2
      3      7      6      5     1  180.0000771  7.1128000  2
      3      7      6      8     1  180.0000771  7.1128000  2
      2      3      4      5     1  180.0000771  7.1128000  2
      2      3      7      6     1  180.0000771  7.1128000  2
      1      2      3      4     1  0.0000000  0.0000000  2
      1      2      3      7     1  0.0000000  0.0000000  2
      8      7      6      5     4  180.0000771  4.6024000  2
      2      4      3      7     4  180.0000771  4.6024000  2
     14      4      5     15     1  180.0000771  16.7360000  2
     11      1      2     12     1  0.0000000  0.6508444  3
     11      1      2     13     1  0.0000000  0.6508444  3
     10      1      2     12     1  0.0000000  0.6508444  3
     10      1      2     13     1  0.0000000  0.6508444  3
      9      1      2     12     1  0.0000000  0.6508444  3
      9      1      2     13     1  0.0000000  0.6508444  3
      8      6      5     15     1  180.0000771  7.1128000  2
      8      6      7     16     1  180.0000771  7.1128000  2
      7      3      2     12     1  0.0000000  0.0000000  2
      7      3      2     13     1  0.0000000  0.0000000  2
      7      3      4     14     1  180.0000771  7.1128000  2
      7      6      5     15     1  180.0000771  7.1128000  2
      7      6      8     17     1  0.0000000  0.0000000  2
      7      6      8     18     1  0.0000000  0.0000000  2
      7      6      8     19     1  0.0000000  0.0000000  2
      6      5      4     14     1  180.0000771  16.7360000  2
      5      6      7     16     1  180.0000771  7.1128000  2
      5      6      8     17     1  0.0000000  0.0000000  2
      5      6      8     18     1  0.0000000  0.0000000  2
      5      6      8     19     1  0.0000000  0.0000000  2
      4      3      2     12     1  0.0000000  0.0000000  2
      4      3      2     13     1  0.0000000  0.0000000  2
      4      3      7     16     1  180.0000771  7.1128000  2
      9      1      2      3     1  0.0000000  0.6508444  3
     10      1      2      3     1  0.0000000  0.6508444  3
     11      1      2      3     1  0.0000000  0.6508444  3
      3      4      5     15     1  180.0000771  16.7360000  2
      2      3      4     14     1  180.0000771  7.1128000  2
      2      3      7     16     1  180.0000771  7.1128000  2
     16      3      7      6     4  180.0000771  4.6024000  2
      4     15      5      6     4  180.0000771  4.6024000  2
      5     14      4      3     4  180.0000771  4.6024000  2


[ moleculetype ]
; Name            nrexcl
TF2          3

[ atoms ]
;   nr       type  resnr residue  atom   cgnr    charge       mass  typeB    chargeB      massB
; residue    1 TF2 rtp TF2 q -1.0
    1         c3      1    TF2     C1      1 0.55470000  12.010000   ; qtot 0.554700
    2          f      1    TF2     F1      2 -0.27163300  19.000000   ; qtot 0.283067
    3          f      1    TF2     F2      3 -0.27163300  19.000000   ; qtot 0.011434
    4          f      1    TF2     F3      4 -0.27163300  19.000000   ; qtot -0.260199
    5         s6      1    TF2     S1      5 1.48370000  32.060000   ; qtot 1.223501
    6          o      1    TF2     O1      6 -0.61320000  16.000000   ; qtot 0.610301
    7          o      1    TF2     O2      7 -0.65680000  16.000000   ; qtot -0.046499
    8         ne      1    TF2     N1      8 -1.05910000  14.010000   ; qtot -1.105599
    9         sy      1    TF2     S2      9 1.68240000  32.060000   ; qtot 0.576801
   10          o      1    TF2     O3     10 -0.65680000  16.000000   ; qtot -0.079999
   11          o      1    TF2     O4     11 -0.65680000  16.000000   ; qtot -0.736799
   12         c3      1    TF2     C2     12 0.55470000  12.010000   ; qtot -0.182099
   13          f      1    TF2     F4     13 -0.27163300  19.000000   ; qtot -0.453732
   14          f      1    TF2     F5     14 -0.27163300  19.000000   ; qtot -0.725365
   15          f      1    TF2     F6     15 -0.27163300  19.000000   ; qtot -0.996998

[ bonds ]
;    ai     aj funct         c0         c1         c2         c3
     12     13     1   0.13497 298653.920000
     12     14     1   0.13497 298653.920000
     12     15     1   0.13497 298653.920000
      9     10     1   0.14660 412542.400000
      9     11     1   0.14660 412542.400000
      9     12     1   0.18087 194807.040000
      8      9     1   0.16723 265349.280000
      5      6     1   0.14533 429027.360000
      5      7     1   0.14533 429027.360000
      5      8     1   0.16720 265349.280000
      1      2     1   0.13497 298653.920000
      1      3     1   0.13497 298653.920000
      1      4     1   0.13497 298653.920000
      1      5     1   0.18075 195392.800000

[ pairs ]
;    ai     aj funct         c0         c1         c2         c3
     11     13     1
     11     14     1
     11     15     1
     10     13     1
     10     14     1
     10     15     1
      8     13     1
      8     14     1
      8     15     1
      7      9     1
      6      9     1
      5     10     1
      5     11     1
      5     12     1
      4      6     1
      4      7     1
      4      8     1
      3      6     1
      3      7     1
      3      8     1
      2      6     1
      2      7     1
      2      8     1
      1      9     1

[ angles ]
;    ai     aj     ak funct         c0         c1         c2         c3
     14     12     15     1   107.3600461 593.291200
     13     12     14     1   107.3600461 593.291200
     13     12     15     1   107.3600461 593.291200
     11      9     12     1   107.8500465 547.267200
     10      9     11     1   121.4100519 606.680000
     10      9     12     1   107.8500465 547.267200
      9     12     13     1   109.6800468 528.020800
      9     12     14     1   109.6800468 528.020800
      9     12     15     1   109.6800468 528.020800
      8      9     10     1   109.6500473 588.270400
      8      9     11     1   109.6500473 588.270400
      8      9     12     1   102.1900440 536.388800
      7      5      8     1   119.1000510 592.454400
      6      5      7     1   120.0500517 615.884800
      6      5      8     1   119.1000510 592.454400
      5      8      9     1   119.6300513 551.451200
      4      1      5     1   109.6800468 528.020800
      3      1      4     1   107.3600461 593.291200
      3      1      5     1   109.6800468 528.020800
      2      1      3     1   107.3600461 593.291200
      2      1      4     1   107.3600461 593.291200
      2      1      5     1   109.6800468 528.020800
      1      5      6     1   108.6100464 547.267200
      1      5      7     1   108.6100464 547.267200
      1      5      8     1   108.1900465 136.398400

[ dihedrals ]
;    ai     aj     ak     al funct         c0         c1         c2         c3         c4         c5
     11      9     12     13     1  0.0000000  0.6043556  3
     11      9     12     14     1  0.0000000  0.6043556  3
     11      9     12     15     1  0.0000000  0.6043556  3
     10      9     12     13     1  0.0000000  0.6043556  3
     10      9     12     14     1  0.0000000  0.6043556  3
     10      9     12     15     1  0.0000000  0.6043556  3
      8      9     12     13     1  0.0000000  0.6043556  3
      8      9     12     14     1  0.0000000  0.6043556  3
      8      9     12     15     1  0.0000000  0.6043556  3
      7      5      8      9     1  180.0000771  27.8933333  2
      6      5      8      9     1  180.0000771  27.8933333  2
      5      8      9     10     1  180.0000771  28.4512000  1
      5      8      9     10     1  180.0000771  2.0920000  3
      5      8      9     11     1  180.0000771  28.4512000  1
      5      8      9     11     1  180.0000771  2.0920000  3
      5      8      9     12     1  180.0000771  28.4512000  1
      5      8      9     12     1  180.0000771  2.0920000  3
      4      1      5      6     1  0.0000000  0.6043556  3
      4      1      5      7     1  0.0000000  0.6043556  3
      4      1      5      8     1  0.0000000  0.6043556  3
      3      1      5      6     1  0.0000000  0.6043556  3
      3      1      5      7     1  0.0000000  0.6043556  3
      3      1      5      8     1  0.0000000  0.6043556  3
      2      1      5      6     1  0.0000000  0.6043556  3
      2      1      5      7     1  0.0000000  0.6043556  3
      2      1      5      8     1  0.0000000  0.6043556  3
      1      5      8      9     1  180.0000771  27.8933333  2

[ system ]
; Name
Generic title

[ molecules ]
; Compound       #mols
C2M                250
TF2                250
