GROningen MAchine for Chemical Simulation
 8500
    1C2M     C1    1   3.891   6.024   6.184
    1C2M     C2    2   3.853   6.097   6.312
    1C2M     N1    3   3.838   6.004   6.423
    1C2M     C3    4   3.720   5.943   6.463
    1C2M     C4    5   3.751   5.864   6.571
    1C2M     N2    6   3.886   5.879   6.594
    1C2M     C5    7   3.938   5.964   6.504
    1C2M     C6    8   3.963   5.813   6.699
    1C2M     H1    9   3.986   5.970   6.197
    1C2M     H2   10   3.903   6.094   6.102
    1C2M     H3   11   3.815   5.951   6.157
    1C2M     H4   12   3.931   6.170   6.338
    1C2M     H5   13   3.759   6.151   6.298
    1C2M     H6   14   3.629   5.964   6.410
    1C2M     H7   15   3.693   5.799   6.635
    1C2M     H8   16   4.042   5.995   6.497
    1C2M     H9   17   4.068   5.842   6.693
    1C2M    H10   18   3.922   5.843   6.796
    1C2M    H11   19   3.954   5.705   6.687
    2C2M     C1   20   1.523   0.572   1.857
    2C2M     C2   21   1.528   0.509   1.995
    2C2M     N1   22   1.646   0.424   2.010
    2C2M     C3   23   1.652   0.287   1.985
    2C2M     C4   24   1.780   0.248   2.011
    2C2M     N2   25   1.849   0.361   2.052
    2C2M     C5   26   1.766   0.466   2.051
    2C2M     C6   27   1.989   0.365   2.090
    2C2M     H1   28   1.612   0.633   1.839
    2C2M     H2   29   1.435   0.636   1.847
    2C2M     H3   30   1.519   0.495   1.779
    2C2M     H4   31   1.532   0.587   2.072
    2C2M     H5   32   1.438   0.449   2.013
    2C2M     H6   33   1.563   0.236   1.951
    2C2M     H7   34   1.831   0.153   2.007
    2C2M     H8   35   1.792   0.568   2.077
    2C2M     H9   36   2.018   0.467   2.117
    2C2M    H10   37   2.005   0.300   2.177
    2C2M    H11   38   2.050   0.331   2.006
    3C2M     C1   39   4.488   6.540   5.595
    3C2M     C2   40   4.631   6.496   5.621
    3C2M     N1   41   4.676   6.399   5.522
    3C2M     C3   42   4.668   6.261   5.532
    3C2M     C4   43   4.721   6.210   5.418
    3C2M     N2   44   4.760   6.317   5.340
    3C2M     C5   45   4.732   6.432   5.404
    3C2M     C6   46   4.823   6.309   5.208
    3C2M     H1   47   4.479   6.586   5.496
    3C2M     H2   48   4.455   6.613   5.669
    3C2M     H3   49   4.420   6.454   5.598
    3C2M     H4   50   4.698   6.583   5.618
    3C2M     H5   51   4.639   6.451   5.721
    3C2M     H6   52   4.625   6.218   5.621
    3C2M     H7   53   4.736   6.110   5.381
    3C2M     H8   54   4.752   6.532   5.368
    3C2M     H9   55   4.842   6.410   5.170
    3C2M    H10   56   4.917   6.255   5.217
    3C2M    H11   57   4.755   6.256   5.140
    4C2M     C1   58   4.352   1.865   2.923
    4C2M     C2   59   4.373   2.011   2.887
    4C2M     N1   60   4.505   2.058   2.929
    4C2M     C3   61   4.535   2.119   3.050
    4C2M     C4   62   4.669   2.147   3.048
    4C2M     N2   63   4.717   2.102   2.926
    4C2M     C5   64   4.617   2.048   2.855
    4C2M     C6   65   4.855   2.110   2.881
    4C2M     H1   66   4.428   1.802   2.875
    4C2M     H2   67   4.254   1.831   2.890
    4C2M     H3   68   4.360   1.851   3.031
    4C2M     H4   69   4.365   2.025   2.778
    4C2M     H5   70   4.296   2.074   2.934
    4C2M     H6   71   4.457   2.135   3.122
    4C2M     H7   72   4.737   2.193   3.118
    4C2M     H8   73   4.624   2.005   2.756
    4C2M     H9   74   4.865   2.066   2.782
    4C2M    H10   75   4.885   2.215   2.877
    4C2M    H11   76   4.919   2.056   2.951
    5C2M     C1   77   2.200   2.282   6.477
    5C2M     C2   78   2.124   2.298   6.347
    5C2M     N1   79   2.060   2.430   6.339
    5C2M     C3   80   1.931   2.460   6.379
    5C2M     C4   81   1.913   2.593   6.354
    5C2M     N2   82   2.031   2.640   6.299
    5C2M     C5   83   2.119   2.540   6.291
    5C2M     C6   84   2.057   2.778   6.257
    5C2M     H1   85   2.278   2.358   6.487
    5C2M     H2   86   2.248   2.183   6.482
    5C2M     H3   87   2.133   2.292   6.563
    5C2M     H4   88   2.191   2.287   6.262
    5C2M     H5   89   2.047   2.221   6.338
    5C2M     H6   90   1.869   2.383   6.421
    5C2M     H7   91   1.831   2.661   6.368
    5C2M     H8   92   2.221   2.546   6.252
    5C2M     H9   93   2.159   2.786   6.219
    5C2M    H10   94   1.986   2.804   6.178
    5C2M    H11   95   2.044   2.844   6.343
    6C2M     C1   96   4.826   5.912   1.801
    6C2M     C2   97   4.862   5.819   1.687
    6C2M     N1   98   4.922   5.695   1.737
    6C2M     C3   99   5.057   5.671   1.755
    6C2M     C4  100   5.069   5.543   1.803
    6C2M     N2  101   4.940   5.493   1.814
    6C2M     C5  102   4.852   5.586   1.773
    6C2M     C6  103   4.905   5.360   1.861
    6C2M     H1  104   4.755   5.864   1.869
    6C2M     H2  105   4.781   6.004   1.763
    6C2M     H3  106   4.915   5.939   1.860
    6C2M     H4  107   4.773   5.793   1.629
    6C2M     H5  108   4.933   5.867   1.619
    6C2M     H6  109   5.128   5.748   1.731
    6C2M     H7  110   5.152   5.481   1.832
    6C2M     H8  111   4.744   5.575   1.771
    6C2M     H9  112   4.796   5.348   1.860
    6C2M    H10  113   4.950   5.285   1.796
    6C2M    H11  114   4.942   5.347   1.963
    7C2M     C1  115   5.420   4.480   5.876
    7C2M     C2  116   5.382   4.626   5.889
    7C2M     N1  117   5.258   4.642   5.966
    7C2M     C3  118   5.130   4.649   5.914
    7C2M     C4  119   5.045   4.664   6.020
    7C2M     N2  120   5.124   4.666   6.134
    7C2M     C5  121   5.253   4.653   6.100
    7C2M     C6  122   5.075   4.681   6.270
    7C2M     H1  123   5.434   4.434   5.975
    7C2M     H2  124   5.512   4.469   5.819
    7C2M     H3  125   5.341   4.424   5.825
    7C2M     H4  126   5.462   4.682   5.940
    7C2M     H5  127   5.368   4.671   5.790
    7C2M     H6  128   5.116   4.642   5.807
    7C2M     H7  129   4.938   4.674   6.029
    7C2M     H8  130   5.337   4.651   6.168
    7C2M     H9  131   5.158   4.677   6.340
    7C2M    H10  132   5.023   4.776   6.280
    7C2M    H11  133   5.006   4.598   6.292
    8C2M     C1  134   3.110   5.816   0.593
    8C2M     C2  135   3.040   5.751   0.711
    8C2M     N1  136   2.937   5.657   0.666
    8C2M     C3  137   2.803   5.687   0.646
    8C2M     C4  138   2.743   5.571   0.604
    8C2M     N2  139   2.841   5.474   0.599
    8C2M     C5  140   2.958   5.528   0.637
    8C2M     C6  141   2.822   5.335   0.560
    8C2M     H1  142   3.158   5.740   0.530
    8C2M     H2  143   3.187   5.885   0.628
    8C2M     H3  144   3.039   5.871   0.531
    8C2M     H4  145   3.111   5.695   0.772
    8C2M     H5  146   2.993   5.827   0.774
    8C2M     H6  147   2.767   5.787   0.664
    8C2M     H7  148   2.642   5.545   0.576
    8C2M     H8  149   3.053   5.476   0.643
    8C2M     H9  150   2.917   5.282   0.564
    8C2M    H10  151   2.751   5.288   0.628
    8C2M    H11  152   2.784   5.332   0.457
    9C2M     C1  153   0.472   1.288   4.999
    9C2M     C2  154   0.603   1.225   5.043
    9C2M     N1  155   0.717   1.308   5.006
    9C2M     C3  156   0.791   1.297   4.889
    9C2M     C4  157   0.887   1.394   4.894
    9C2M     N2  158   0.870   1.461   5.014
    9C2M     C5  159   0.767   1.408   5.081
    9C2M     C6  160   0.952   1.572   5.062
    9C2M     H1  161   0.459   1.386   5.045
    9C2M     H2  162   0.387   1.225   5.028
    9C2M     H3  163   0.470   1.301   4.891
    9C2M     H4  164   0.604   1.212   5.152
    9C2M     H5  165   0.615   1.126   4.998
    9C2M     H6  166   0.764   1.222   4.816
    9C2M     H7  167   0.967   1.424   4.828
    9C2M     H8  168   0.729   1.439   5.177
    9C2M     H9  169   0.915   1.606   5.159
    9C2M    H10  170   1.055   1.539   5.072
    9C2M    H11  171   0.946   1.654   4.990
   10C2M     C1  172   1.129   1.519   0.667
   10C2M     C2  173   1.041   1.508   0.789
   10C2M     N1  174   1.062   1.621   0.880
   10C2M     C3  175   1.151   1.625   0.986
   10C2M     C4  176   1.137   1.748   1.043
   10C2M     N2  177   1.041   1.816   0.971
   10C2M     C5  178   0.996   1.737   0.872
   10C2M     C6  179   0.995   1.952   0.997
   10C2M     H1  180   1.108   1.611   0.612
   10C2M     H2  181   1.113   1.434   0.600
   10C2M     H3  182   1.235   1.520   0.695
   10C2M     H4  183   0.935   1.506   0.761
   10C2M     H5  184   1.062   1.415   0.844
   10C2M     H6  185   1.212   1.539   1.007
   10C2M     H7  186   1.185   1.797   1.127
   10C2M     H8  187   0.920   1.763   0.799
   10C2M     H9  188   0.919   1.980   0.923
   10C2M    H10  189   0.952   1.956   1.097
   10C2M    H11  190   1.080   2.021   0.990
   11C2M     C1  191   6.757   4.269   1.731
   11C2M     C2  192   6.623   4.255   1.801
   11C2M     N1  193   6.619   4.134   1.883
   11C2M     C3  194   6.573   4.010   1.844
   11C2M     C4  195   6.587   3.927   1.951
   11C2M     N2  196   6.641   4.002   2.054
   11C2M     C5  197   6.659   4.128   2.011
   11C2M     C6  198   6.673   3.954   2.187
   11C2M     H1  199   6.838   4.275   1.804
   11C2M     H2  200   6.759   4.360   1.670
   11C2M     H3  201   6.776   4.183   1.666
   11C2M     H4  202   6.604   4.341   1.865
   11C2M     H5  203   6.542   4.250   1.727
   11C2M     H6  204   6.536   3.997   1.743
   11C2M     H7  205   6.565   3.822   1.968
   11C2M     H8  206   6.700   4.210   2.069
   11C2M     H9  207   6.715   4.035   2.247
   11C2M    H10  208   6.581   3.918   2.235
   11C2M    H11  209   6.745   3.873   2.180
   12C2M     C1  210   1.655   0.978   2.496
   12C2M     C2  211   1.635   1.098   2.406
   12C2M     N1  212   1.549   1.065   2.292
   12C2M     C3  213   1.591   1.021   2.168
   12C2M     C4  214   1.479   1.002   2.092
   12C2M     N2  215   1.371   1.035   2.173
   12C2M     C5  216   1.415   1.072   2.293
   12C2M     C6  217   1.230   1.029   2.133
   12C2M     H1  218   1.559   0.942   2.535
   12C2M     H2  219   1.719   1.004   2.581
   12C2M     H3  220   1.702   0.895   2.441
   12C2M     H4  221   1.588   1.180   2.461
   12C2M     H5  222   1.731   1.134   2.368
   12C2M     H6  223   1.696   1.009   2.149
   12C2M     H7  224   1.461   0.970   1.991
   12C2M     H8  225   1.353   1.104   2.377
   12C2M     H9  226   1.167   1.059   2.217
   12C2M    H10  227   1.214   1.097   2.049
   12C2M    H11  228   1.206   0.927   2.103
   13C2M     C1  229   1.064   1.449   5.971
   13C2M     C2  230   1.064   1.400   6.114
   13C2M     N1  231   1.071   1.253   6.120
   13C2M     C3  232   0.963   1.166   6.126
   13C2M     C4  233   1.015   1.040   6.130
   13C2M     N2  234   1.153   1.053   6.127
   13C2M     C5  235   1.185   1.183   6.121
   13C2M     C6  236   1.249   0.943   6.129
   13C2M     H1  237   1.155   1.417   5.919
   13C2M     H2  238   1.059   1.558   5.968
   13C2M     H3  239   0.979   1.409   5.916
   13C2M     H4  240   1.149   1.440   6.169
   13C2M     H5  241   0.973   1.432   6.166
   13C2M     H6  242   0.863   1.206   6.126
   13C2M     H7  243   0.972   0.942   6.135
   13C2M     H8  244   1.286   1.224   6.117
   13C2M     H9  245   1.351   0.983   6.125
   13C2M    H10  246   1.236   0.887   6.222
   13C2M    H11  247   1.231   0.878   6.043
   14C2M     C1  248   0.643   6.401   2.602
   14C2M     C2  249   0.641   6.545   2.651
   14C2M     N1  250   0.543   6.624   2.577
   14C2M     C3  251   0.568   6.699   2.463
   14C2M     C4  252   0.449   6.757   2.427
   14C2M     N2  253   0.355   6.716   2.520
   14C2M     C5  254   0.413   6.636   2.610
   14C2M     C6  255   0.214   6.754   2.520
   14C2M     H1  256   0.544   6.354   2.614
   14C2M     H2  257   0.716   6.342   2.659
   14C2M     H3  258   0.669   6.396   2.496
   14C2M     H4  259   0.614   6.548   2.757
   14C2M     H5  260   0.739   6.590   2.640
   14C2M     H6  261   0.668   6.702   2.422
   14C2M     H7  262   0.420   6.823   2.347
   14C2M     H8  263   0.364   6.588   2.694
   14C2M     H9  264   0.163   6.706   2.604
   14C2M    H10  265   0.206   6.862   2.530
   14C2M    H11  266   0.168   6.721   2.426
   15C2M     C1  267   0.902   5.371   5.724
   15C2M     C2  268   0.949   5.490   5.644
   15C2M     N1  269   0.995   5.598   5.731
   15C2M     C3  270   0.918   5.704   5.778
   15C2M     C4  271   1.000   5.781   5.856
   15C2M     N2  272   1.125   5.720   5.855
   15C2M     C5  273   1.120   5.610   5.779
   15C2M     C6  274   1.243   5.768   5.925
   15C2M     H1  275   0.982   5.332   5.788
   15C2M     H2  276   0.868   5.291   5.658
   15C2M     H3  277   0.818   5.399   5.790
   15C2M     H4  278   1.033   5.461   5.579
   15C2M     H5  279   0.869   5.528   5.580
   15C2M     H6  280   0.815   5.710   5.749
   15C2M     H7  281   0.986   5.871   5.912
   15C2M     H8  282   1.202   5.542   5.760
   15C2M     H9  283   1.327   5.700   5.908
   15C2M    H10  284   1.268   5.868   5.888
   15C2M    H11  285   1.221   5.773   6.032
   16C2M     C1  286   5.829   5.139   3.993
   16C2M     C2  287   5.802   5.209   3.860
   16C2M     N1  288   5.729   5.334   3.881
   16C2M     C3  289   5.591   5.350   3.878
   16C2M     C4  290   5.566   5.482   3.902
   16C2M     N2  291   5.689   5.544   3.917
   16C2M     C5  292   5.787   5.453   3.904
   16C2M     C6  293   5.710   5.685   3.944
   16C2M     H1  294   5.889   5.203   4.058
   16C2M     H2  295   5.884   5.046   3.976
   16C2M     H3  296   5.736   5.116   4.044
   16C2M     H4  297   5.896   5.231   3.809
   16C2M     H5  298   5.743   5.144   3.795
   16C2M     H6  299   5.529   5.264   3.861
   16C2M     H7  300   5.476   5.541   3.909
   16C2M     H8  301   5.893   5.471   3.911
   16C2M     H9  302   5.817   5.706   3.953
   16C2M    H10  303   5.669   5.744   3.861
   16C2M    H11  304   5.660   5.712   4.037
   17C2M     C1  305   5.300   3.195   5.084
   17C2M     C2  306   5.210   3.239   5.198
   17C2M     N1  307   5.071   3.249   5.154
   17C2M     C3  308   5.009   3.364   5.106
   17C2M     C4  309   4.880   3.329   5.077
   17C2M     N2  310   4.866   3.195   5.108
   17C2M     C5  311   4.983   3.148   5.155
   17C2M     C6  312   4.745   3.116   5.092
   17C2M     H1  313   5.269   3.097   5.046
   17C2M     H2  314   5.404   3.187   5.119
   17C2M     H3  315   5.296   3.266   5.002
   17C2M     H4  316   5.215   3.167   5.281
   17C2M     H5  317   5.242   3.336   5.237
   17C2M     H6  318   5.065   3.455   5.099
   17C2M     H7  319   4.795   3.383   5.037
   17C2M     H8  320   5.003   3.046   5.187
   17C2M     H9  321   4.763   3.013   5.123
   17C2M    H10  322   4.666   3.159   5.154
   17C2M    H11  323   4.714   3.117   4.987
   18C2M     C1  324   6.550   2.681   5.180
   18C2M     C2  325   6.659   2.778   5.223
   18C2M     N1  326   6.609   2.873   5.323
   18C2M     C3  327   6.555   2.997   5.298
   18C2M     C4  328   6.522   3.051   5.419
   18C2M     N2  329   6.557   2.958   5.515
   18C2M     C5  330   6.610   2.850   5.456
   18C2M     C6  331   6.540   2.973   5.659
   18C2M     H1  332   6.514   2.624   5.266
   18C2M     H2  333   6.589   2.611   5.106
   18C2M     H3  334   6.465   2.735   5.137
   18C2M     H4  335   6.744   2.724   5.265
   18C2M     H5  336   6.695   2.835   5.136
   18C2M     H6  337   6.546   3.032   5.197
   18C2M     H7  338   6.478   3.144   5.450
   18C2M     H8  339   6.647   2.761   5.505
   18C2M     H9  340   6.576   2.883   5.711
   18C2M    H10  341   6.598   3.060   5.693
   18C2M    H11  342   6.434   2.988   5.681
   19C2M     C1  343   2.679   4.800   6.368
   19C2M     C2  344   2.597   4.795   6.496
   19C2M     N1  345   2.462   4.846   6.474
   19C2M     C3  346   2.421   4.977   6.494
   19C2M     C4  347   2.288   4.982   6.462
   19C2M     N2  348   2.252   4.853   6.424
   19C2M     C5  349   2.358   4.773   6.432
   19C2M     C6  350   2.118   4.812   6.382
   19C2M     H1  351   2.632   4.741   6.289
   19C2M     H2  352   2.780   4.761   6.385
   19C2M     H3  353   2.688   4.903   6.332
   19C2M     H4  354   2.589   4.691   6.531
   19C2M     H5  355   2.645   4.854   6.574
   19C2M     H6  356   2.492   5.051   6.527
   19C2M     H7  357   2.214   5.060   6.461
   19C2M     H8  358   2.360   4.667   6.409
   19C2M     H9  359   2.119   4.705   6.357
   19C2M    H10  360   2.048   4.829   6.464
   19C2M    H11  361   2.089   4.870   6.294
   20C2M     C1  362   0.186   1.569   3.653
   20C2M     C2  363   0.335   1.594   3.658
   20C2M     N1  364   0.377   1.642   3.790
   20C2M     C3  365   0.387   1.775   3.829
   20C2M     C4  366   0.429   1.774   3.959
   20C2M     N2  367   0.442   1.641   3.996
   20C2M     C5  368   0.410   1.562   3.893
   20C2M     C6  369   0.485   1.594   4.127
   20C2M     H1  370   0.157   1.494   3.728
   20C2M     H2  371   0.156   1.532   3.555
   20C2M     H3  372   0.130   1.660   3.675
   20C2M     H4  373   0.390   1.502   3.636
   20C2M     H5  374   0.364   1.668   3.583
   20C2M     H6  375   0.363   1.852   3.759
   20C2M     H7  376   0.450   1.851   4.031
   20C2M     H8  377   0.412   1.454   3.892
   20C2M     H9  378   0.485   1.484   4.129
   20C2M    H10  379   0.585   1.631   4.148
   20C2M    H11  380   0.415   1.631   4.203
   21C2M     C1  381   3.522   0.516   5.890
   21C2M     C2  382   3.418   0.614   5.940
   21C2M     N1  383   3.312   0.634   5.841
   21C2M     C3  384   3.309   0.732   5.743
   21C2M     C4  385   3.193   0.714   5.673
   21C2M     N2  386   3.129   0.605   5.729
   21C2M     C5  387   3.202   0.558   5.831
   21C2M     C6  388   3.001   0.550   5.686
   21C2M     H1  389   3.477   0.419   5.869
   21C2M     H2  390   3.600   0.502   5.965
   21C2M     H3  391   3.569   0.552   5.798
   21C2M     H4  392   3.372   0.578   6.032
   21C2M     H5  393   3.464   0.711   5.962
   21C2M     H6  394   3.390   0.802   5.736
   21C2M     H7  395   3.148   0.764   5.589
   21C2M     H8  396   3.177   0.473   5.894
   21C2M     H9  397   2.975   0.464   5.748
   21C2M    H10  398   2.924   0.627   5.696
   21C2M    H11  399   3.009   0.519   5.581
   22C2M     C1  400   6.524   6.366   5.522
   22C2M     C2  401   6.583   6.498   5.569
   22C2M     N1  402   6.480   6.586   5.623
   22C2M     C3  403   6.410   6.682   5.552
   22C2M     C4  404   6.324   6.741   5.640
   22C2M     N2  405   6.344   6.680   5.762
   22C2M     C5  406   6.439   6.586   5.750
   22C2M     C6  407   6.273   6.712   5.886
   22C2M     H1  408   6.474   6.314   5.605
   22C2M     H2  409   6.602   6.300   5.482
   22C2M     H3  410   6.450   6.383   5.443
   22C2M     H4  411   6.658   6.480   5.647
   22C2M     H5  412   6.634   6.548   5.486
   22C2M     H6  413   6.430   6.696   5.447
   22C2M     H7  414   6.251   6.820   5.631
   22C2M     H8  415   6.476   6.522   5.829
   22C2M     H9  416   6.308   6.647   5.966
   22C2M    H10  417   6.293   6.816   5.912
   22C2M    H11  418   6.166   6.696   5.871
   23C2M     C1  419   0.551   5.333   4.224
   23C2M     C2  420   0.607   5.259   4.343
   23C2M     N1  421   0.753   5.244   4.332
   23C2M     C3  422   0.820   5.137   4.277
   23C2M     C4  423   0.954   5.164   4.288
   23C2M     N2  424   0.964   5.287   4.350
   23C2M     C5  425   0.842   5.335   4.376
   23C2M     C6  426   1.089   5.356   4.382
   23C2M     H1  427   0.595   5.433   4.216
   23C2M     H2  428   0.443   5.344   4.233
   23C2M     H3  429   0.573   5.280   4.130
   23C2M     H4  430   0.585   5.312   4.436
   23C2M     H5  431   0.563   5.159   4.351
   23C2M     H6  432   0.764   5.055   4.236
   23C2M     H7  433   1.043   5.112   4.259
   23C2M     H8  434   0.818   5.429   4.425
   23C2M     H9  435   1.067   5.452   4.430
   23C2M    H10  436   1.147   5.294   4.450
   23C2M    H11  437   1.145   5.373   4.290
   24C2M     C1  438   2.963   0.644   1.515
   24C2M     C2  439   2.970   0.564   1.643
   24C2M     N1  440   2.845   0.492   1.668
   24C2M     C3  441   2.738   0.538   1.743
   24C2M     C4  442   2.643   0.440   1.740
   24C2M     N2  443   2.694   0.337   1.663
   24C2M     C5  444   2.817   0.370   1.621
   24C2M     C6  445   2.626   0.211   1.634
   24C2M     H1  446   2.943   0.579   1.429
   24C2M     H2  447   3.057   0.697   1.497
   24C2M     H3  448   2.882   0.718   1.519
   24C2M     H4  449   3.051   0.491   1.638
   24C2M     H5  450   2.990   0.630   1.728
   24C2M     H6  451   2.743   0.636   1.788
   24C2M     H7  452   2.544   0.430   1.782
   24C2M     H8  453   2.882   0.309   1.559
   24C2M     H9  454   2.690   0.149   1.570
   24C2M    H10  455   2.606   0.159   1.727
   24C2M    H11  456   2.533   0.232   1.581
   25C2M     C1  457   4.729   3.400   6.398
   25C2M     C2  458   4.773   3.263   6.446
   25C2M     N1  459   4.846   3.192   6.340
   25C2M     C3  460   4.792   3.105   6.247
   25C2M     C4  461   4.895   3.062   6.169
   25C2M     N2  462   5.009   3.123   6.215
   25C2M     C5  463   4.979   3.202   6.320
   25C2M     C6  464   5.144   3.106   6.161
   25C2M     H1  465   4.815   3.461   6.369
   25C2M     H2  466   4.675   3.452   6.478
   25C2M     H3  467   4.663   3.392   6.311
   25C2M     H4  468   4.839   3.272   6.533
   25C2M     H5  469   4.687   3.203   6.475
   25C2M     H6  470   4.686   3.085   6.249
   25C2M     H7  471   4.901   2.995   6.085
   25C2M     H8  472   5.048   3.263   6.377
   25C2M     H9  473   5.215   3.168   6.216
   25C2M    H10  474   5.172   3.001   6.169
   25C2M    H11  475   5.143   3.137   6.056
   26C2M     C1  476   2.958   5.055   0.179
   26C2M     C2  477   2.975   5.143   0.301
   26C2M     N1  478   3.109   5.202   0.307
   26C2M     C3  479   3.219   5.148   0.372
   26C2M     C4  480   3.322   5.235   0.352
   26C2M     N2  481   3.273   5.339   0.274
   26C2M     C5  482   3.143   5.317   0.248
   26C2M     C6  483   3.349   5.454   0.228
   26C2M     H1  484   2.974   5.112   0.087
   26C2M     H2  485   2.858   5.012   0.176
   26C2M     H3  486   3.031   4.973   0.180
   26C2M     H4  487   2.901   5.224   0.300
   26C2M     H5  488   2.958   5.085   0.393
   26C2M     H6  489   3.208   5.055   0.425
   26C2M     H7  490   3.425   5.236   0.382
   26C2M     H8  491   3.078   5.381   0.189
   26C2M     H9  492   3.286   5.519   0.168
   26C2M    H10  493   3.386   5.509   0.315
   26C2M    H11  494   3.433   5.419   0.167
   27C2M     C1  495   0.411   2.931   2.056
   27C2M     C2  496   0.382   2.786   2.092
   27C2M     N1  497   0.346   2.708   1.974
   27C2M     C3  498   0.217   2.686   1.927
   27C2M     C4  499   0.229   2.609   1.816
   27C2M     N2  500   0.364   2.585   1.797
   27C2M     C5  501   0.434   2.646   1.894
   27C2M     C6  502   0.422   2.507   1.689
   27C2M     H1  503   0.493   2.937   1.984
   27C2M     H2  504   0.439   2.988   2.145
   27C2M     H3  505   0.323   2.978   2.010
   27C2M     H4  506   0.471   2.740   2.138
   27C2M     H5  507   0.301   2.781   2.165
   27C2M     H6  508   0.134   2.729   1.980
   27C2M     H7  509   0.158   2.567   1.746
   27C2M     H8  510   0.541   2.646   1.905
   27C2M     H9  511   0.531   2.506   1.698
   27C2M    H10  512   0.385   2.404   1.695
   27C2M    H11  513   0.394   2.551   1.593
   28C2M     C1  514   4.381   1.617   0.846
   28C2M     C2  515   4.391   1.720   0.956
   28C2M     N1  516   4.526   1.777   0.963
   28C2M     C3  517   4.629   1.731   1.043
   28C2M     C4  518   4.736   1.813   1.019
   28C2M     N2  519   4.695   1.906   0.925
   28C2M     C5  520   4.567   1.883   0.893
   28C2M     C6  521   4.778   2.013   0.870
   28C2M     H1  522   4.405   1.661   0.748
   28C2M     H2  523   4.280   1.575   0.841
   28C2M     H3  524   4.451   1.534   0.863
   28C2M     H4  525   4.320   1.801   0.939
   28C2M     H5  526   4.366   1.675   1.053
   28C2M     H6  527   4.613   1.646   1.107
   28C2M     H7  528   4.837   1.816   1.057
   28C2M     H8  529   4.508   1.939   0.822
   28C2M     H9  530   4.720   2.070   0.797
   28C2M    H10  531   4.810   2.078   0.951
   28C2M    H11  532   4.865   1.969   0.821
   29C2M     C1  533   1.454   2.018   3.739
   29C2M     C2  534   1.514   2.052   3.604
   29C2M     N1  535   1.654   2.095   3.618
   29C2M     C3  536   1.698   2.225   3.633
   29C2M     C4  537   1.834   2.220   3.642
   29C2M     N2  538   1.870   2.086   3.632
   29C2M     C5  539   1.759   2.012   3.618
   29C2M     C6  540   2.005   2.033   3.637
   29C2M     H1  541   1.510   1.937   3.787
   29C2M     H2  542   1.350   1.986   3.727
   29C2M     H3  543   1.456   2.105   3.805
   29C2M     H4  544   1.511   1.965   3.537
   29C2M     H5  545   1.458   2.133   3.556
   29C2M     H6  546   1.626   2.306   3.635
   29C2M     H7  547   1.912   2.294   3.654
   29C2M     H8  548   1.755   1.904   3.608
   29C2M     H9  549   2.003   1.924   3.629
   29C2M    H10  550   2.063   2.075   3.555
   29C2M    H11  551   2.051   2.061   3.733
   30C2M     C1  552   1.310   2.419   2.941
   30C2M     C2  553   1.360   2.415   3.084
   30C2M     N1  554   1.354   2.548   3.145
   30C2M     C3  555   1.456   2.642   3.148
   30C2M     C4  556   1.408   2.751   3.214
   30C2M     N2  557   1.278   2.721   3.251
   30C2M     C5  558   1.247   2.598   3.209
   30C2M     C6  559   1.188   2.810   3.325
   30C2M     H1  560   1.206   2.454   2.937
   30C2M     H2  561   1.314   2.319   2.896
   30C2M     H3  562   1.370   2.487   2.880
   30C2M     H4  563   1.299   2.347   3.144
   30C2M     H5  564   1.463   2.380   3.088
   30C2M     H6  565   1.550   2.618   3.101
   30C2M     H7  566   1.450   2.847   3.241
   30C2M     H8  567   1.151   2.548   3.223
   30C2M     H9  568   1.092   2.761   3.339
   30C2M    H10  569   1.232   2.832   3.422
   30C2M    H11  570   1.175   2.902   3.268
   31C2M     C1  571   4.970   3.762   3.809
   31C2M     C2  572   4.856   3.860   3.792
   31C2M     N1  573   4.881   3.983   3.867
   31C2M     C3  574   4.839   4.010   3.996
   31C2M     C4  575   4.883   4.136   4.027
   31C2M     N2  576   4.950   4.183   3.915
   31C2M     C5  577   4.948   4.089   3.819
   31C2M     C6  578   5.014   4.313   3.903
   31C2M     H1  579   5.065   3.805   3.774
   31C2M     H2  580   4.951   3.670   3.753
   31C2M     H3  581   4.983   3.735   3.915
   31C2M     H4  582   4.844   3.886   3.686
   31C2M     H5  583   4.762   3.816   3.827
   31C2M     H6  584   4.783   3.935   4.050
   31C2M     H7  585   4.875   4.199   4.114
   31C2M     H8  586   4.993   4.097   3.720
   31C2M     H9  587   5.061   4.323   3.804
   31C2M    H10  588   4.939   4.391   3.915
   31C2M    H11  589   5.091   4.323   3.980
   32C2M     C1  590   1.570   4.150   1.347
   32C2M     C2  591   1.592   4.270   1.437
   32C2M     N1  592   1.464   4.324   1.485
   32C2M     C3  593   1.392   4.425   1.425
   32C2M     C4  594   1.280   4.445   1.501
   32C2M     N2  595   1.288   4.355   1.606
   32C2M     C5  596   1.400   4.282   1.595
   32C2M     C6  597   1.190   4.340   1.713
   32C2M     H1  598   1.516   4.070   1.400
   32C2M     H2  599   1.666   4.109   1.313
   32C2M     H3  600   1.510   4.177   1.259
   32C2M     H4  601   1.652   4.241   1.525
   32C2M     H5  602   1.646   4.348   1.384
   32C2M     H6  603   1.429   4.471   1.334
   32C2M     H7  604   1.196   4.511   1.495
   32C2M     H8  605   1.433   4.204   1.662
   32C2M     H9  606   1.221   4.261   1.781
   32C2M    H10  607   1.182   4.434   1.768
   32C2M    H11  608   1.093   4.315   1.669
   33C2M     C1  609   5.699   2.438   6.739
   33C2M     C2  610   5.633   2.499   6.617
   33C2M     N1  611   5.614   2.643   6.633
   33C2M     C3  612   5.502   2.706   6.684
   33C2M     C4  613   5.527   2.840   6.681
   33C2M     N2  614   5.654   2.856   6.630
   33C2M     C5  615   5.706   2.736   6.601
   33C2M     C6  616   5.722   2.983   6.609
   33C2M     H1  617   5.797   2.483   6.756
   33C2M     H2  618   5.713   2.330   6.725
   33C2M     H3  619   5.638   2.454   6.828
   33C2M     H4  620   5.694   2.482   6.527
   33C2M     H5  621   5.535   2.453   6.599
   33C2M     H6  622   5.418   2.646   6.715
   33C2M     H7  623   5.470   2.927   6.710
   33C2M     H8  624   5.804   2.717   6.559
   33C2M     H9  625   5.822   2.966   6.568
   33C2M    H10  626   5.664   3.044   6.539
   33C2M    H11  627   5.731   3.035   6.705
   34C2M     C1  628   5.720   2.436   1.156
   34C2M     C2  629   5.731   2.584   1.188
   34C2M     N1  630   5.602   2.639   1.227
   34C2M     C3  631   5.510   2.699   1.142
   34C2M     C4  632   5.404   2.737   1.220
   34C2M     N2  633   5.433   2.699   1.350
   34C2M     C5  634   5.554   2.640   1.352
   34C2M     C6  635   5.348   2.719   1.466
   34C2M     H1  636   5.684   2.380   1.243
   34C2M     H2  637   5.818   2.395   1.128
   34C2M     H3  638   5.650   2.419   1.074
   34C2M     H4  639   5.802   2.600   1.270
   34C2M     H5  640   5.769   2.639   1.101
   34C2M     H6  641   5.532   2.708   1.037
   34C2M     H7  642   5.310   2.786   1.199
   34C2M     H8  643   5.604   2.600   1.440
   34C2M     H9  644   5.396   2.678   1.555
   34C2M    H10  645   5.331   2.826   1.479
   34C2M    H11  646   5.252   2.668   1.449
   35C2M     C1  647   5.284   3.933   6.384
   35C2M     C2  648   5.321   3.970   6.242
   35C2M     N1  649   5.422   4.076   6.240
   35C2M     C3  650   5.397   4.213   6.233
   35C2M     C4  651   5.519   4.275   6.234
   35C2M     N2  652   5.615   4.175   6.241
   35C2M     C5  653   5.554   4.056   6.245
   35C2M     C6  654   5.759   4.196   6.244
   35C2M     H1  655   5.371   3.898   6.439
   35C2M     H2  656   5.208   3.853   6.384
   35C2M     H3  657   5.242   4.019   6.437
   35C2M     H4  658   5.362   3.884   6.189
   35C2M     H5  659   5.233   4.005   6.187
   35C2M     H6  660   5.295   4.248   6.229
   35C2M     H7  661   5.550   4.378   6.230
   35C2M     H8  662   5.604   3.959   6.250
   35C2M     H9  663   5.810   4.100   6.251
   35C2M    H10  664   5.790   4.247   6.153
   35C2M    H11  665   5.784   4.257   6.332
   36C2M     C1  666   2.430   3.159   3.818
   36C2M     C2  667   2.412   3.296   3.755
   36C2M     N1  668   2.531   3.336   3.681
   36C2M     C3  669   2.637   3.411   3.731
   36C2M     C4  670   2.726   3.426   3.629
   36C2M     N2  671   2.673   3.360   3.519
   36C2M     C5  672   2.555   3.307   3.552
   36C2M     C6  673   2.735   3.351   3.388
   36C2M     H1  674   2.450   3.083   3.741
   36C2M     H2  675   2.340   3.129   3.872
   36C2M     H3  676   2.515   3.159   3.887
   36C2M     H4  677   2.327   3.295   3.686
   36C2M     H5  678   2.391   3.371   3.832
   36C2M     H6  679   2.635   3.443   3.834
   36C2M     H7  680   2.822   3.475   3.620
   36C2M     H8  681   2.490   3.249   3.487
   36C2M     H9  682   2.672   3.292   3.321
   36C2M    H10  683   2.748   3.451   3.347
   36C2M    H11  684   2.832   3.301   3.397
   37C2M     C1  685   2.566   0.296   4.907
   37C2M     C2  686   2.455   0.272   5.007
   37C2M     N1  687   2.325   0.312   4.953
   37C2M     C3  688   2.265   0.436   4.966
   37C2M     C4  689   2.146   0.429   4.900
   37C2M     N2  690   2.136   0.302   4.848
   37C2M     C5  691   2.245   0.231   4.881
   37C2M     C6  692   2.024   0.250   4.770
   37C2M     H1  693   2.549   0.238   4.815
   37C2M     H2  694   2.663   0.265   4.948
   37C2M     H3  695   2.572   0.401   4.879
   37C2M     H4  696   2.450   0.167   5.035
   37C2M     H5  697   2.474   0.330   5.099
   37C2M     H6  698   2.316   0.513   5.021
   37C2M     H7  699   2.066   0.500   4.883
   37C2M     H8  700   2.266   0.128   4.854
   37C2M     H9  701   2.044   0.146   4.741
   37C2M    H10  702   1.933   0.254   4.830
   37C2M    H11  703   2.012   0.311   4.680
   38C2M     C1  704   5.919   3.565   5.216
   38C2M     C2  705   5.937   3.713   5.192
   38C2M     N1  706   5.835   3.766   5.102
   38C2M     C3  707   5.845   3.777   4.964
   38C2M     C4  708   5.728   3.830   4.920
   38C2M     N2  709   5.648   3.850   5.031
   38C2M     C5  710   5.714   3.810   5.141
   38C2M     C6  711   5.513   3.905   5.031
   38C2M     H1  712   5.821   3.544   5.259
   38C2M     H2  713   5.996   3.527   5.284
   38C2M     H3  714   5.926   3.509   5.121
   38C2M     H4  715   5.930   3.768   5.287
   38C2M     H5  716   6.036   3.734   5.149
   38C2M     H6  717   5.936   3.746   4.916
   38C2M     H7  718   5.690   3.857   4.823
   38C2M     H8  719   5.677   3.813   5.243
   38C2M     H9  720   5.474   3.908   5.133
   38C2M    H10  721   5.516   4.006   4.990
   38C2M    H11  722   5.449   3.842   4.969
   39C2M     C1  723   5.935   4.368   3.612
   39C2M     C2  724   5.811   4.443   3.656
   39C2M     N1  725   5.690   4.364   3.631
   39C2M     C3  726   5.611   4.369   3.517
   39C2M     C4  727   5.509   4.280   3.535
   39C2M     N2  728   5.528   4.223   3.660
   39C2M     C5  729   5.638   4.275   3.716
   39C2M     C6  730   5.442   4.122   3.721
   39C2M     H1  731   5.944   4.273   3.666
   39C2M     H2  732   6.025   4.427   3.632
   39C2M     H3  733   5.931   4.345   3.505
   39C2M     H4  734   5.815   4.465   3.763
   39C2M     H5  735   5.802   4.538   3.602
   39C2M     H6  736   5.639   4.436   3.437
   39C2M     H7  737   5.425   4.249   3.475
   39C2M     H8  738   5.678   4.249   3.814
   39C2M     H9  739   5.482   4.094   3.819
   39C2M    H10  740   5.342   4.162   3.732
   39C2M    H11  741   5.440   4.033   3.656
   40C2M     C1  742   5.157   3.855   3.151
   40C2M     C2  743   5.061   3.831   3.037
   40C2M     N1  744   5.079   3.697   2.979
   40C2M     C3  745   5.162   3.665   2.873
   40C2M     C4  746   5.149   3.530   2.852
   40C2M     N2  747   5.060   3.484   2.947
   40C2M     C5  748   5.018   3.586   3.023
   40C2M     C6  749   5.016   3.346   2.963
   40C2M     H1  750   5.142   3.781   3.231
   40C2M     H2  751   5.142   3.955   3.194
   40C2M     H3  752   5.261   3.847   3.118
   40C2M     H4  753   4.957   3.839   3.071
   40C2M     H5  754   5.076   3.905   2.958
   40C2M     H6  755   5.219   3.742   2.825
   40C2M     H7  756   5.193   3.461   2.782
   40C2M     H8  757   4.948   3.581   3.106
   40C2M     H9  758   4.946   3.338   3.046
   40C2M    H10  759   4.967   3.313   2.871
   40C2M    H11  760   5.103   3.283   2.982
   41C2M     C1  761   3.487   3.610   6.088
   41C2M     C2  762   3.624   3.634   6.147
   41C2M     N1  763   3.687   3.753   6.090
   41C2M     C3  764   3.772   3.755   5.980
   41C2M     C4  765   3.807   3.886   5.961
   41C2M     N2  766   3.743   3.960   6.059
   41C2M     C5  767   3.671   3.877   6.137
   41C2M     C6  768   3.753   4.104   6.077
   41C2M     H1  769   3.421   3.696   6.106
   41C2M     H2  770   3.441   3.521   6.132
   41C2M     H3  771   3.493   3.596   5.979
   41C2M     H4  772   3.617   3.648   6.256
   41C2M     H5  773   3.689   3.547   6.129
   41C2M     H6  774   3.796   3.663   5.929
   41C2M     H7  775   3.870   3.937   5.889
   41C2M     H8  776   3.610   3.906   6.222
   41C2M     H9  777   3.691   4.135   6.161
   41C2M    H10  778   3.857   4.131   6.095
   41C2M    H11  779   3.717   4.153   5.986
   42C2M     C1  780   2.253   3.360   2.620
   42C2M     C2  781   2.199   3.364   2.478
   42C2M     N1  782   2.156   3.500   2.443
   42C2M     C3  783   2.028   3.551   2.458
   42C2M     C4  784   2.031   3.680   2.413
   42C2M     N2  785   2.161   3.704   2.371
   42C2M     C5  786   2.235   3.594   2.390
   42C2M     C6  787   2.211   3.829   2.316
   42C2M     H1  788   2.339   3.427   2.631
   42C2M     H2  789   2.286   3.258   2.645
   42C2M     H3  790   2.177   3.391   2.692
   42C2M     H4  791   2.275   3.333   2.407
   42C2M     H5  792   2.113   3.296   2.468
   42C2M     H6  793   1.950   3.489   2.499
   42C2M     H7  794   1.958   3.758   2.404
   42C2M     H8  795   2.341   3.583   2.368
   42C2M     H9  796   2.318   3.820   2.293
   42C2M    H10  797   2.156   3.852   2.224
   42C2M    H11  798   2.196   3.909   2.389
   43C2M     C1  799   4.800   2.358   1.958
   43C2M     C2  800   4.823   2.432   1.828
   43C2M     N1  801   4.966   2.452   1.804
   43C2M     C3  802   5.041   2.563   1.841
   43C2M     C4  803   5.169   2.540   1.800
   43C2M     N2  804   5.169   2.416   1.738
   43C2M     C5  805   5.046   2.364   1.741
   43C2M     C6  806   5.285   2.351   1.678
   43C2M     H1  807   4.848   2.260   1.956
   43C2M     H2  808   4.693   2.343   1.975
   43C2M     H3  809   4.841   2.414   2.043
   43C2M     H4  810   4.782   2.376   1.744
   43C2M     H5  811   4.774   2.530   1.831
   43C2M     H6  812   4.993   2.644   1.893
   43C2M     H7  813   5.261   2.596   1.806
   43C2M     H8  814   5.015   2.268   1.701
   43C2M     H9  815   5.257   2.254   1.637
   43C2M    H10  816   5.324   2.414   1.597
   43C2M    H11  817   5.362   2.338   1.754
   44C2M     C1  818   6.054   3.667   1.852
   44C2M     C2  819   5.932   3.581   1.824
   44C2M     N1  820   5.940   3.454   1.895
   44C2M     C3  821   5.992   3.335   1.845
   44C2M     C4  822   5.980   3.242   1.944
   44C2M     N2  823   5.920   3.305   2.052
   44C2M     C5  824   5.897   3.434   2.021
   44C2M     C6  825   5.888   3.243   2.180
   44C2M     H1  826   6.064   3.688   1.959
   44C2M     H2  827   6.047   3.762   1.799
   44C2M     H3  828   6.146   3.616   1.819
   44C2M     H4  829   5.841   3.633   1.857
   44C2M     H5  830   5.923   3.561   1.717
   44C2M     H6  831   6.031   3.333   1.745
   44C2M     H7  832   6.005   3.138   1.952
   44C2M     H8  833   5.851   3.508   2.085
   44C2M     H9  834   5.843   3.317   2.247
   44C2M    H10  835   5.817   3.162   2.163
   44C2M    H11  836   5.980   3.205   2.225
   45C2M     C1  837   0.873   3.914   2.055
   45C2M     C2  838   0.903   4.004   1.937
   45C2M     N1  839   0.780   4.044   1.868
   45C2M     C3  840   0.723   3.978   1.760
   45C2M     C4  841   0.610   4.049   1.727
   45C2M     N2  842   0.602   4.155   1.816
   45C2M     C5  843   0.706   4.150   1.901
   45C2M     C6  844   0.497   4.256   1.818
   45C2M     H1  845   0.808   3.964   2.127
   45C2M     H2  846   0.965   3.885   2.106
   45C2M     H3  847   0.822   3.822   2.022
   45C2M     H4  848   0.955   4.094   1.971
   45C2M     H5  849   0.969   3.953   1.866
   45C2M     H6  850   0.770   3.890   1.720
   45C2M     H7  851   0.534   4.037   1.652
   45C2M     H8  852   0.726   4.220   1.981
   45C2M     H9  853   0.515   4.327   1.899
   45C2M    H10  854   0.497   4.309   1.723
   45C2M    H11  855   0.400   4.207   1.833
   46C2M     C1  856   2.262   0.852   3.710
   46C2M     C2  857   2.209   0.864   3.851
   46C2M     N1  858   2.072   0.915   3.852
   46C2M     C3  859   2.035   1.049   3.863
   46C2M     C4  860   1.899   1.052   3.860
   46C2M     N2  861   1.856   0.921   3.847
   46C2M     C5  862   1.962   0.839   3.842
   46C2M     C6  863   1.717   0.878   3.839
   46C2M     H1  864   2.200   0.784   3.651
   46C2M     H2  865   2.364   0.812   3.710
   46C2M     H3  866   2.263   0.949   3.660
   46C2M     H4  867   2.209   0.766   3.901
   46C2M     H5  868   2.272   0.931   3.910
   46C2M     H6  869   2.112   1.124   3.872
   46C2M     H7  870   1.826   1.131   3.865
   46C2M     H8  871   1.960   0.732   3.833
   46C2M     H9  872   1.712   0.769   3.828
   46C2M    H10  873   1.665   0.907   3.931
   46C2M    H11  874   1.669   0.925   3.753
   47C2M     C1  875   1.828   0.286   5.683
   47C2M     C2  876   1.798   0.432   5.709
   47C2M     N1  877   1.845   0.516   5.597
   47C2M     C3  878   1.968   0.578   5.588
   47C2M     C4  879   1.970   0.645   5.469
   47C2M     N2  880   1.847   0.622   5.409
   47C2M     C5  881   1.772   0.544   5.488
   47C2M     C6  882   1.805   0.675   5.280
   47C2M     H1  883   1.779   0.251   5.592
   47C2M     H2  884   1.792   0.225   5.767
   47C2M     H3  885   1.936   0.269   5.672
   47C2M     H4  886   1.691   0.448   5.720
   47C2M     H5  887   1.847   0.466   5.801
   47C2M     H6  888   2.040   0.565   5.668
   47C2M     H7  889   2.043   0.706   5.419
   47C2M     H8  890   1.672   0.509   5.467
   47C2M     H9  891   1.704   0.640   5.257
   47C2M    H10  892   1.805   0.784   5.284
   47C2M    H11  893   1.874   0.640   5.202
   48C2M     C1  894   1.646   3.143   6.162
   48C2M     C2  895   1.577   3.191   6.288
   48C2M     N1  896   1.485   3.301   6.260
   48C2M     C3  897   1.515   3.436   6.265
   48C2M     C4  898   1.401   3.503   6.231
   48C2M     N2  899   1.304   3.407   6.205
   48C2M     C5  900   1.357   3.285   6.223
   48C2M     C6  901   1.167   3.434   6.165
   48C2M     H1  902   1.573   3.108   6.089
   48C2M     H2  903   1.715   3.061   6.185
   48C2M     H3  904   1.704   3.224   6.117
   48C2M     H4  905   1.520   3.109   6.334
   48C2M     H5  906   1.651   3.225   6.362
   48C2M     H6  907   1.614   3.467   6.293
   48C2M     H7  908   1.375   3.607   6.222
   48C2M     H8  909   1.305   3.191   6.210
   48C2M     H9  910   1.113   3.340   6.150
   48C2M    H10  911   1.117   3.492   6.243
   48C2M    H11  912   1.167   3.490   6.071
   49C2M     C1  913   3.479   6.421   0.670
   49C2M     C2  914   3.353   6.360   0.728
   49C2M     N1  915   3.252   6.463   0.755
   49C2M     C3  916   3.234   6.531   0.874
   49C2M     C4  917   3.130   6.618   0.856
   49C2M     N2  918   3.087   6.601   0.725
   49C2M     C5  919   3.162   6.507   0.665
   49C2M     C6  920   2.978   6.673   0.662
   49C2M     H1  921   3.457   6.473   0.576
   49C2M     H2  922   3.553   6.343   0.650
   49C2M     H3  923   3.523   6.494   0.739
   49C2M     H4  924   3.310   6.287   0.659
   49C2M     H5  925   3.375   6.308   0.822
   49C2M     H6  926   3.299   6.509   0.958
   49C2M     H7  927   3.081   6.690   0.918
   49C2M     H8  928   3.152   6.472   0.563
   49C2M     H9  929   2.966   6.640   0.558
   49C2M    H10  930   2.885   6.653   0.716
   49C2M    H11  931   3.000   6.780   0.664
   50C2M     C1  932   2.303   6.146   6.264
   50C2M     C2  933   2.396   6.046   6.330
   50C2M     N1  934   2.405   5.922   6.253
   50C2M     C3  935   2.326   5.809   6.270
   50C2M     C4  936   2.368   5.718   6.177
   50C2M     N2  937   2.470   5.778   6.105
   50C2M     C5  938   2.491   5.901   6.152
   50C2M     C6  939   2.544   5.716   5.995
   50C2M     H1  940   2.338   6.171   6.164
   50C2M     H2  941   2.297   6.238   6.323
   50C2M     H3  942   2.202   6.104   6.255
   50C2M     H4  943   2.497   6.088   6.339
   50C2M     H5  944   2.361   6.022   6.431
   50C2M     H6  945   2.251   5.808   6.347
   50C2M     H7  946   2.337   5.618   6.152
   50C2M     H8  947   2.565   5.972   6.116
   50C2M     H9  948   2.618   5.787   5.957
   50C2M    H10  949   2.594   5.627   6.032
   50C2M    H11  950   2.474   5.690   5.916
   51C2M     C1  951   5.053   4.073   2.528
   51C2M     C2  952   4.985   4.014   2.650
   51C2M     N1  953   4.882   3.918   2.611
   51C2M     C3  954   4.748   3.945   2.592
   51C2M     C4  955   4.688   3.827   2.557
   51C2M     N2  956   4.787   3.731   2.556
   51C2M     C5  957   4.904   3.787   2.589
   51C2M     C6  958   4.768   3.590   2.524
   51C2M     H1  959   5.100   3.995   2.467
   51C2M     H2  960   5.130   4.145   2.558
   51C2M     H3  961   4.981   4.125   2.464
   51C2M     H4  962   5.058   3.963   2.713
   51C2M     H5  963   4.939   4.093   2.710
   51C2M     H6  964   4.712   4.046   2.606
   51C2M     H7  965   4.587   3.799   2.533
   51C2M     H8  966   5.000   3.736   2.596
   51C2M     H9  967   4.864   3.537   2.530
   51C2M    H10  968   4.698   3.546   2.596
   51C2M    H11  969   4.728   3.581   2.423
   52C2M     C1  970   4.868   0.908   3.985
   52C2M     C2  971   4.890   1.006   4.099
   52C2M     N1  972   4.955   1.128   4.052
   52C2M     C3  973   5.092   1.152   4.050
   52C2M     C4  974   5.109   1.277   3.999
   52C2M     N2  975   4.983   1.326   3.970
   52C2M     C5  976   4.890   1.235   4.003
   52C2M     C6  977   4.953   1.457   3.913
   52C2M     H1  978   4.806   0.952   3.907
   52C2M     H2  979   4.819   0.817   4.022
   52C2M     H3  980   4.964   0.879   3.940
   52C2M     H4  981   4.794   1.033   4.144
   52C2M     H5  982   4.951   0.961   4.177
   52C2M     H6  983   5.159   1.076   4.086
   52C2M     H7  984   5.195   1.338   3.978
   52C2M     H8  985   4.783   1.245   3.991
   52C2M     H9  986   4.845   1.469   3.900
   52C2M    H10  987   4.990   1.535   3.981
   52C2M    H11  988   5.003   1.466   3.816
   53C2M     C1  989   5.806   4.036   3.611
   53C2M     C2  990   5.933   3.975   3.554
   53C2M     N1  991   5.923   3.959   3.409
   53C2M     C3  992   5.879   3.845   3.342
   53C2M     C4  993   5.886   3.873   3.209
   53C2M     N2  994   5.934   4.003   3.197
   53C2M     C5  995   5.956   4.053   3.320
   53C2M     C6  996   5.958   4.074   3.072
   53C2M     H1  997   5.787   4.134   3.567
   53C2M     H2  998   5.815   4.048   3.720
   53C2M     H3  999   5.719   3.973   3.590
   53C2M     H4 1000   6.019   4.038   3.576
   53C2M     H5 1001   5.951   3.877   3.599
   53C2M     H6 1002   5.848   3.759   3.399
   53C2M     H7 1003   5.863   3.818   3.119
   53C2M     H8 1004   5.994   4.152   3.343
   53C2M     H9 1005   5.995   4.175   3.094
   53C2M    H10 1006   6.032   4.019   3.014
   53C2M    H11 1007   5.864   4.081   3.017
   54C2M     C1 1008   6.413   1.679   2.938
   54C2M     C2 1009   6.280   1.611   2.917
   54C2M     N1 1010   6.265   1.496   3.006
   54C2M     C3 1011   6.299   1.364   2.977
   54C2M     C4 1012   6.269   1.290   3.087
   54C2M     N2 1013   6.219   1.378   3.182
   54C2M     C5 1014   6.217   1.502   3.131
   54C2M     C6 1015   6.174   1.341   3.316
   54C2M     H1 1016   6.424   1.714   3.041
   54C2M     H2 1017   6.423   1.765   2.871
   54C2M     H3 1018   6.496   1.611   2.917
   54C2M     H4 1019   6.198   1.680   2.937
   54C2M     H5 1020   6.270   1.576   2.813
   54C2M     H6 1021   6.340   1.341   2.880
   54C2M     H7 1022   6.278   1.185   3.111
   54C2M     H8 1023   6.182   1.591   3.182
   54C2M     H9 1024   6.140   1.431   3.369
   54C2M    H10 1025   6.091   1.270   3.308
   54C2M    H11 1026   6.257   1.296   3.370
   55C2M     C1 1027   0.149   2.675   4.632
   55C2M     C2 1028   0.202   2.733   4.503
   55C2M     N1 1029   0.331   2.800   4.523
   55C2M     C3 1030   0.349   2.935   4.551
   55C2M     C4 1031   0.484   2.955   4.563
   55C2M     N2 1032   0.544   2.832   4.541
   55C2M     C5 1033   0.450   2.739   4.518
   55C2M     C6 1034   0.688   2.806   4.544
   55C2M     H1 1035   0.220   2.602   4.674
   55C2M     H2 1036   0.054   2.625   4.616
   55C2M     H3 1037   0.135   2.754   4.707
   55C2M     H4 1038   0.216   2.654   4.428
   55C2M     H5 1039   0.131   2.805   4.461
   55C2M     H6 1040   0.263   2.999   4.560
   55C2M     H7 1041   0.545   3.041   4.584
   55C2M     H8 1042   0.467   2.634   4.497
   55C2M     H9 1043   0.707   2.700   4.525
   55C2M    H10 1044   0.736   2.866   4.467
   55C2M    H11 1045   0.727   2.833   4.643
   56C2M     C1 1046   3.791   2.378   4.374
   56C2M     C2 1047   3.698   2.307   4.277
   56C2M     N1 1048   3.666   2.172   4.324
   56C2M     C3 1049   3.733   2.056   4.291
   56C2M     C4 1050   3.671   1.954   4.356
   56C2M     N2 1051   3.566   2.010   4.428
   56C2M     C5 1052   3.564   2.143   4.407
   56C2M     C6 1053   3.472   1.938   4.512
   56C2M     H1 1054   3.745   2.386   4.473
   56C2M     H2 1055   3.814   2.479   4.338
   56C2M     H3 1056   3.885   2.323   4.385
   56C2M     H4 1057   3.604   2.363   4.267
   56C2M     H5 1058   3.744   2.300   4.178
   56C2M     H6 1059   3.818   2.061   4.225
   56C2M     H7 1060   3.687   1.847   4.362
   56C2M     H8 1061   3.494   2.213   4.450
   56C2M     H9 1062   3.401   2.007   4.557
   56C2M    H10 1063   3.418   1.865   4.451
   56C2M    H11 1064   3.527   1.886   4.591
   57C2M     C1 1065   4.220   5.536   5.444
   57C2M     C2 1066   4.123   5.567   5.556
   57C2M     N1 1067   3.985   5.541   5.515
   57C2M     C3 1068   3.897   5.633   5.459
   57C2M     C4 1069   3.780   5.567   5.437
   57C2M     N2 1070   3.799   5.436   5.479
   57C2M     C5 1071   3.923   5.422   5.527
   57C2M     C6 1072   3.699   5.330   5.474
   57C2M     H1 1073   4.212   5.431   5.414
   57C2M     H2 1074   4.323   5.555   5.476
   57C2M     H3 1075   4.199   5.597   5.356
   57C2M     H4 1076   4.145   5.506   5.644
   57C2M     H5 1077   4.131   5.672   5.586
   57C2M     H6 1078   3.930   5.734   5.443
   57C2M     H7 1079   3.685   5.595   5.396
   57C2M     H8 1080   3.967   5.331   5.567
   57C2M     H9 1081   3.742   5.237   5.513
   57C2M    H10 1082   3.613   5.359   5.535
   57C2M    H11 1083   3.668   5.315   5.370
   58C2M     C1 1084   6.219   2.411   1.695
   58C2M     C2 1085   6.209   2.363   1.552
   58C2M     N1 1086   6.219   2.217   1.544
   58C2M     C3 1087   6.336   2.144   1.525
   58C2M     C4 1088   6.300   2.012   1.524
   58C2M     N2 1089   6.163   2.008   1.543
   58C2M     C5 1090   6.116   2.133   1.555
   58C2M     C6 1091   6.082   1.887   1.549
   58C2M     H1 1092   6.139   2.367   1.756
   58C2M     H2 1093   6.211   2.520   1.700
   58C2M     H3 1094   6.315   2.382   1.740
   58C2M     H4 1095   6.113   2.393   1.508
   58C2M     H5 1096   6.289   2.407   1.491
   58C2M     H6 1097   6.429   2.196   1.514
   58C2M     H7 1098   6.355   1.920   1.512
   58C2M     H8 1099   6.012   2.160   1.571
   58C2M     H9 1100   5.977   1.913   1.566
   58C2M    H10 1101   6.091   1.833   1.455
   58C2M    H11 1102   6.118   1.824   1.631
   59C2M     C1 1103   4.190   4.747   3.187
   59C2M     C2 1104   4.098   4.647   3.117
   59C2M     N1 1105   4.080   4.527   3.198
   59C2M     C3 1106   4.156   4.411   3.190
   59C2M     C4 1107   4.105   4.324   3.282
   59C2M     N2 1108   4.000   4.389   3.345
   59C2M     C5 1109   3.986   4.512   3.292
   59C2M     C6 1110   3.917   4.333   3.450
   59C2M     H1 1111   4.148   4.776   3.284
   59C2M     H2 1112   4.202   4.837   3.126
   59C2M     H3 1113   4.288   4.703   3.205
   59C2M     H4 1114   4.000   4.692   3.100
   59C2M     H5 1115   4.140   4.619   3.020
   59C2M     H6 1116   4.237   4.406   3.119
   59C2M     H7 1117   4.131   4.224   3.313
   59C2M     H8 1118   3.912   4.585   3.321
   59C2M     H9 1119   3.842   4.407   3.482
   59C2M    H10 1120   3.866   4.244   3.413
   59C2M    H11 1121   3.980   4.308   3.536
   60C2M     C1 1122   3.939   0.637   2.892
   60C2M     C2 1123   3.858   0.670   3.016
   60C2M     N1 1124   3.727   0.725   2.981
   60C2M     C3 1125   3.697   0.860   2.966
   60C2M     C4 1126   3.564   0.866   2.933
   60C2M     N2 1127   3.517   0.736   2.928
   60C2M     C5 1128   3.617   0.652   2.957
   60C2M     C6 1129   3.381   0.696   2.897
   60C2M     H1 1130   3.886   0.563   2.830
   60C2M     H2 1131   4.036   0.595   2.919
   60C2M     H3 1132   3.955   0.726   2.831
   60C2M     H4 1133   3.842   0.580   3.076
   60C2M     H5 1134   3.912   0.743   3.078
   60C2M     H6 1135   3.774   0.933   2.981
   60C2M     H7 1136   3.497   0.948   2.912
   60C2M     H8 1137   3.611   0.544   2.962
   60C2M     H9 1138   3.373   0.587   2.899
   60C2M    H10 1139   3.313   0.739   2.971
   60C2M    H11 1140   3.355   0.732   2.797
   61C2M     C1 1141   3.268   1.721   1.568
   61C2M     C2 1142   3.171   1.749   1.455
   61C2M     N1 1143   3.115   1.884   1.465
   61C2M     C3 1144   2.997   1.920   1.529
   61C2M     C4 1145   2.984   2.055   1.514
   61C2M     N2 1146   3.093   2.098   1.442
   61C2M     C5 1147   3.172   1.994   1.412
   61C2M     C6 1148   3.120   2.236   1.402
   61C2M     H1 1149   3.351   1.793   1.567
   61C2M     H2 1150   3.309   1.620   1.560
   61C2M     H3 1151   3.218   1.730   1.665
   61C2M     H4 1152   3.221   1.740   1.358
   61C2M     H5 1153   3.088   1.677   1.457
   61C2M     H6 1154   2.939   1.843   1.577
   61C2M     H7 1155   2.910   2.126   1.546
   61C2M     H8 1156   3.265   1.997   1.357
   61C2M     H9 1157   3.214   2.242   1.347
   61C2M    H10 1158   3.038   2.272   1.339
   61C2M    H11 1159   3.127   2.298   1.492
   62C2M     C1 1160   2.300   5.705   1.358
   62C2M     C2 1161   2.313   5.554   1.351
   62C2M     N1 1162   2.192   5.488   1.401
   62C2M     C3 1163   2.170   5.446   1.531
   62C2M     C4 1164   2.045   5.390   1.534
   62C2M     N2 1165   1.995   5.399   1.405
   62C2M     C5 1166   2.085   5.458   1.326
   62C2M     C6 1167   1.864   5.351   1.362
   62C2M     H1 1168   2.215   5.739   1.298
   62C2M     H2 1169   2.391   5.753   1.320
   62C2M     H3 1170   2.284   5.738   1.461
   62C2M     H4 1171   2.330   5.521   1.248
   62C2M     H5 1172   2.399   5.520   1.411
   62C2M     H6 1173   2.246   5.462   1.606
   62C2M     H7 1174   1.985   5.345   1.611
   62C2M     H8 1175   2.074   5.479   1.220
   62C2M     H9 1176   1.850   5.372   1.255
   62C2M    H10 1177   1.858   5.243   1.379
   62C2M    H11 1178   1.787   5.402   1.419
   63C2M     C1 1179   3.182   5.133   5.161
   63C2M     C2 1180   3.208   5.058   5.290
   63C2M     N1 1181   3.276   4.931   5.264
   63C2M     C3 1182   3.215   4.808   5.244
   63C2M     C4 1183   3.315   4.717   5.224
   63C2M     N2 1184   3.435   4.787   5.231
   63C2M     C5 1185   3.409   4.916   5.255
   63C2M     C6 1186   3.568   4.729   5.215
   63C2M     H1 1187   3.276   5.154   5.108
   63C2M     H2 1188   3.132   5.228   5.181
   63C2M     H3 1189   3.119   5.074   5.093
   63C2M     H4 1190   3.271   5.118   5.356
   63C2M     H5 1191   3.114   5.037   5.342
   63C2M     H6 1192   3.108   4.801   5.248
   63C2M     H7 1193   3.317   4.611   5.205
   63C2M     H8 1194   3.483   4.995   5.266
   63C2M     H9 1195   3.643   4.807   5.225
   63C2M    H10 1196   3.583   4.654   5.292
   63C2M    H11 1197   3.575   4.683   5.116
   64C2M     C1 1198   4.868   6.612   6.457
   64C2M     C2 1199   4.946   6.622   6.586
   64C2M     N1 1200   5.091   6.622   6.562
   64C2M     C3 1201   5.173   6.510   6.560
   64C2M     C4 1202   5.299   6.555   6.534
   64C2M     N2 1203   5.291   6.692   6.519
   64C2M     C5 1204   5.164   6.731   6.537
   64C2M     C6 1205   5.402   6.782   6.490
   64C2M     H1 1206   4.892   6.696   6.391
   64C2M     H2 1207   4.761   6.613   6.476
   64C2M     H3 1208   4.893   6.520   6.403
   64C2M     H4 1209   4.921   6.714   6.640
   64C2M     H5 1210   4.922   6.538   6.652
   64C2M     H6 1211   5.131   6.413   6.578
   64C2M     H7 1212   5.395   6.507   6.523
   64C2M     H8 1213   5.126   6.833   6.532
   64C2M     H9 1214   5.366   6.885   6.483
   64C2M    H10 1215   5.476   6.774   6.570
   64C2M    H11 1216   5.447   6.753   6.395
   65C2M     C1 1217   2.534   4.847   0.278
   65C2M     C2 1218   2.571   4.710   0.330
   65C2M     N1 1219   2.645   4.720   0.456
   65C2M     C3 1220   2.783   4.725   0.469
   65C2M     C4 1221   2.810   4.734   0.603
   65C2M     N2 1222   2.688   4.734   0.668
   65C2M     C5 1223   2.589   4.726   0.578
   65C2M     C6 1224   2.668   4.742   0.812
   65C2M     H1 1225   2.472   4.901   0.350
   65C2M     H2 1226   2.478   4.839   0.184
   65C2M     H3 1227   2.623   4.907   0.259
   65C2M     H4 1228   2.481   4.650   0.349
   65C2M     H5 1229   2.632   4.656   0.257
   65C2M     H6 1230   2.845   4.721   0.381
   65C2M     H7 1231   2.901   4.740   0.660
   65C2M     H8 1232   2.483   4.724   0.599
   65C2M     H9 1233   2.562   4.742   0.836
   65C2M    H10 1234   2.717   4.657   0.860
   65C2M    H11 1235   2.713   4.835   0.849
   66C2M     C1 1236   1.487   5.819  -0.002
   66C2M     C2 1237   1.450   5.746   0.126
   66C2M     N1 1238   1.393   5.614   0.098
   66C2M     C3 1239   1.258   5.585   0.082
   66C2M     C4 1240   1.250   5.451   0.057
   66C2M     N2 1241   1.379   5.402   0.057
   66C2M     C5 1242   1.465   5.502   0.082
   66C2M     C6 1243   1.417   5.263   0.034
   66C2M     H1 1244   1.560   5.761  -0.059
   66C2M     H2 1245   1.530   5.917   0.021
   66C2M     H3 1246   1.399   5.833  -0.065
   66C2M     H4 1247   1.539   5.732   0.189
   66C2M     H5 1248   1.377   5.804   0.184
   66C2M     H6 1249   1.186   5.664   0.092
   66C2M     H7 1250   1.168   5.384   0.038
   66C2M     H8 1251   1.573   5.494   0.088
   66C2M     H9 1252   1.526   5.253   0.039
   66C2M    H10 1253   1.372   5.200   0.111
   66C2M    H11 1254   1.383   5.232  -0.065
   67C2M     C1 1255   2.151   6.799   3.862
   67C2M     C2 1256   2.054   6.686   3.891
   67C2M     N1 1257   2.119   6.576   3.962
   67C2M     C3 1258   2.178   6.465   3.903
   67C2M     C4 1259   2.227   6.388   4.004
   67C2M     N2 1260   2.198   6.454   4.123
   67C2M     C5 1261   2.132   6.568   4.095
   67C2M     C6 1262   2.231   6.408   4.257
   67C2M     H1 1263   2.193   6.838   3.955
   67C2M     H2 1264   2.101   6.881   3.810
   67C2M     H3 1265   2.234   6.764   3.800
   67C2M     H4 1266   1.971   6.722   3.953
   67C2M     H5 1267   2.011   6.647   3.798
   67C2M     H6 1268   2.177   6.455   3.796
   67C2M     H7 1269   2.280   6.294   4.008
   67C2M     H8 1270   2.096   6.640   4.167
   67C2M     H9 1271   2.197   6.480   4.331
   67C2M    H10 1272   2.183   6.311   4.275
   67C2M    H11 1273   2.340   6.397   4.264
   68C2M     C1 1274   1.515   1.427   6.126
   68C2M     C2 1275   1.573   1.418   6.266
   68C2M     N1 1276   1.592   1.551   6.324
   68C2M     C3 1277   1.708   1.626   6.317
   68C2M     C4 1278   1.683   1.743   6.384
   68C2M     N2 1279   1.553   1.735   6.430
   68C2M     C5 1280   1.499   1.618   6.392
   68C2M     C6 1281   1.483   1.838   6.506
   68C2M     H1 1282   1.418   1.479   6.127
   68C2M     H2 1283   1.500   1.327   6.084
   68C2M     H3 1284   1.581   1.483   6.060
   68C2M     H4 1285   1.506   1.361   6.331
   68C2M     H5 1286   1.669   1.366   6.264
   68C2M     H6 1287   1.794   1.587   6.265
   68C2M     H7 1288   1.741   1.831   6.405
   68C2M     H8 1289   1.398   1.584   6.414
   68C2M     H9 1290   1.381   1.806   6.528
   68C2M    H10 1291   1.537   1.855   6.600
   68C2M    H11 1292   1.481   1.931   6.448
   69C2M     C1 1293   4.638   5.273   5.598
   69C2M     C2 1294   4.516   5.348   5.548
   69C2M     N1 1295   4.502   5.334   5.403
   69C2M     C3 1296   4.552   5.421   5.307
   69C2M     C4 1297   4.516   5.371   5.186
   69C2M     N2 1298   4.444   5.255   5.210
   69C2M     C5 1299   4.436   5.234   5.342
   69C2M     C6 1300   4.385   5.168   5.109
   69C2M     H1 1301   4.630   5.166   5.575
   69C2M     H2 1302   4.647   5.284   5.707
   69C2M     H3 1303   4.729   5.311   5.552
   69C2M     H4 1304   4.425   5.310   5.596
   69C2M     H5 1305   4.524   5.455   5.573
   69C2M     H6 1306   4.608   5.507   5.339
   69C2M     H7 1307   4.532   5.402   5.084
   69C2M     H8 1308   4.386   5.152   5.392
   69C2M     H9 1309   4.335   5.084   5.156
   69C2M    H10 1310   4.312   5.226   5.051
   69C2M    H11 1311   4.464   5.131   5.043
   70C2M     C1 1312   5.553   4.213   4.259
   70C2M     C2 1313   5.632   4.203   4.130
   70C2M     N1 1314   5.775   4.190   4.156
   70C2M     C3 1315   5.866   4.294   4.164
   70C2M     C4 1316   5.988   4.237   4.190
   70C2M     N2 1317   5.968   4.100   4.198
   70C2M     C5 1318   5.838   4.073   4.177
   70C2M     C6 1319   6.071   4.000   4.224
   70C2M     H1 1320   5.568   4.124   4.321
   70C2M     H2 1321   5.446   4.222   4.238
   70C2M     H3 1322   5.584   4.300   4.317
   70C2M     H4 1323   5.599   4.116   4.072
   70C2M     H5 1324   5.615   4.292   4.068
   70C2M     H6 1325   5.833   4.395   4.150
   70C2M     H7 1326   6.087   4.276   4.205
   70C2M     H8 1327   5.792   3.975   4.177
   70C2M     H9 1328   6.026   3.900   4.226
   70C2M    H10 1329   6.146   4.005   4.145
   70C2M    H11 1330   6.116   4.021   4.321
   71C2M     C1 1331   3.024   6.073   1.850
   71C2M     C2 1332   2.921   6.182   1.827
   71C2M     N1 1333   2.883   6.246   1.953
   71C2M     C3 1334   2.777   6.210   2.035
   71C2M     C4 1335   2.779   6.296   2.141
   71C2M     N2 1336   2.885   6.382   2.122
   71C2M     C5 1337   2.948   6.351   2.007
   71C2M     C6 1338   2.925   6.490   2.211
   71C2M     H1 1339   3.114   6.114   1.895
   71C2M     H2 1340   3.051   6.026   1.755
   71C2M     H3 1341   2.985   5.995   1.916
   71C2M     H4 1342   2.960   6.259   1.760
   71C2M     H5 1343   2.830   6.140   1.781
   71C2M     H6 1344   2.714   6.127   2.006
   71C2M     H7 1345   2.717   6.307   2.229
   71C2M     H8 1346   3.035   6.401   1.966
   71C2M     H9 1347   3.013   6.541   2.171
   71C2M    H10 1348   2.842   6.562   2.219
   71C2M    H11 1349   2.948   6.449   2.310
   72C2M     C1 1350   5.029   4.937   3.301
   72C2M     C2 1351   4.942   4.918   3.178
   72C2M     N1 1352   4.802   4.898   3.216
   72C2M     C3 1353   4.740   4.775   3.237
   72C2M     C4 1354   4.610   4.802   3.270
   72C2M     N2 1355   4.596   4.940   3.269
   72C2M     C5 1356   4.713   4.996   3.236
   72C2M     C6 1357   4.473   5.013   3.298
   72C2M     H1 1358   4.996   5.024   3.359
   72C2M     H2 1359   5.133   4.953   3.271
   72C2M     H3 1360   5.025   4.849   3.366
   72C2M     H4 1361   4.947   5.006   3.113
   72C2M     H5 1362   4.975   4.832   3.120
   72C2M     H6 1363   4.797   4.685   3.225
   72C2M     H7 1364   4.525   4.740   3.295
   72C2M     H8 1365   4.732   5.102   3.226
   72C2M     H9 1366   4.491   5.120   3.291
   72C2M    H10 1367   4.396   4.983   3.226
   72C2M    H11 1368   4.441   4.988   3.400
   73C2M     C1 1369   1.178   3.384   3.258
   73C2M     C2 1370   1.168   3.534   3.278
   73C2M     N1 1371   1.048   3.588   3.215
   73C2M     C3 1372   1.039   3.639   3.086
   73C2M     C4 1373   0.909   3.678   3.068
   73C2M     N2 1374   0.842   3.650   3.185
   73C2M     C5 1375   0.927   3.596   3.274
   73C2M     C6 1376   0.701   3.676   3.211
   73C2M     H1 1377   1.091   3.333   3.300
   73C2M     H2 1378   1.268   3.345   3.306
   73C2M     H3 1379   1.182   3.359   3.151
   73C2M     H4 1380   1.164   3.558   3.385
   73C2M     H5 1381   1.256   3.584   3.236
   73C2M     H6 1382   1.127   3.641   3.024
   73C2M     H7 1383   0.856   3.723   2.986
   73C2M     H8 1384   0.903   3.563   3.374
   73C2M     H9 1385   0.675   3.643   3.312
   73C2M    H10 1386   0.682   3.783   3.202
   73C2M    H11 1387   0.641   3.621   3.138
   74C2M     C1 1388   2.072   6.595   5.134
   74C2M     C2 1389   2.092   6.623   4.986
   74C2M     N1 1390   2.209   6.552   4.934
   74C2M     C3 1391   2.338   6.603   4.926
   74C2M     C4 1392   2.416   6.504   4.873
   74C2M     N2 1393   2.333   6.396   4.849
   74C2M     C5 1394   2.208   6.426   4.887
   74C2M     C6 1395   2.374   6.268   4.792
   74C2M     H1 1396   2.058   6.488   5.152
   74C2M     H2 1397   1.983   6.648   5.171
   74C2M     H3 1398   2.159   6.628   5.191
   74C2M     H4 1399   2.004   6.590   4.929
   74C2M     H5 1400   2.105   6.730   4.968
   74C2M     H6 1401   2.357   6.703   4.960
   74C2M     H7 1402   2.520   6.497   4.848
   74C2M     H8 1403   2.121   6.362   4.881
   74C2M     H9 1404   2.288   6.201   4.786
   74C2M    H10 1405   2.414   6.285   4.692
   74C2M    H11 1406   2.450   6.224   4.856
   75C2M     C1 1407   6.082   0.314   5.587
   75C2M     C2 1408   6.157   0.384   5.475
   75C2M     N1 1409   6.287   0.433   5.521
   75C2M     C3 1410   6.312   0.560   5.571
   75C2M     C4 1411   6.445   0.564   5.603
   75C2M     N2 1412   6.498   0.440   5.571
   75C2M     C5 1413   6.400   0.362   5.522
   75C2M     C6 1414   6.636   0.399   5.589
   75C2M     H1 1415   6.139   0.230   5.626
   75C2M     H2 1416   5.986   0.277   5.550
   75C2M     H3 1417   6.063   0.383   5.670
   75C2M     H4 1418   6.175   0.314   5.392
   75C2M     H5 1419   6.099   0.468   5.436
   75C2M     H6 1420   6.232   0.632   5.578
   75C2M     H7 1421   6.510   0.640   5.644
   75C2M     H8 1422   6.411   0.259   5.489
   75C2M     H9 1423   6.649   0.295   5.557
   75C2M    H10 1424   6.700   0.464   5.528
   75C2M    H11 1425   6.663   0.408   5.694
   76C2M     C1 1426   5.099   3.234   2.593
   76C2M     C2 1427   5.079   3.168   2.457
   76C2M     N1 1428   5.022   3.262   2.361
   76C2M     C3 1429   4.887   3.280   2.334
   76C2M     C4 1430   4.878   3.377   2.238
   76C2M     N2 1431   5.007   3.416   2.209
   76C2M     C5 1432   5.093   3.346   2.284
   76C2M     C6 1433   5.045   3.518   2.112
   76C2M     H1 1434   5.166   3.320   2.585
   76C2M     H2 1435   5.142   3.163   2.664
   76C2M     H3 1436   5.003   3.269   2.633
   76C2M     H4 1437   5.174   3.132   2.418
   76C2M     H5 1438   5.012   3.082   2.466
   76C2M     H6 1439   4.814   3.220   2.387
   76C2M     H7 1440   4.796   3.423   2.187
   76C2M     H8 1441   5.201   3.354   2.283
   76C2M     H9 1442   5.154   3.529   2.110
   76C2M    H10 1443   5.011   3.487   2.013
   76C2M    H11 1444   4.999   3.613   2.140
   77C2M     C1 1445   1.578   1.810   1.741
   77C2M     C2 1446   1.430   1.821   1.775
   77C2M     N1 1447   1.387   1.961   1.779
   77C2M     C3 1448   1.384   2.041   1.892
   77C2M     C4 1449   1.338   2.163   1.852
   77C2M     N2 1450   1.314   2.154   1.716
   77C2M     C5 1451   1.344   2.031   1.673
   77C2M     C6 1452   1.263   2.261   1.631
   77C2M     H1 1453   1.599   1.856   1.644
   77C2M     H2 1454   1.608   1.705   1.737
   77C2M     H3 1455   1.639   1.861   1.816
   77C2M     H4 1456   1.370   1.769   1.700
   77C2M     H5 1457   1.410   1.774   1.872
   77C2M     H6 1458   1.416   2.001   1.987
   77C2M     H7 1459   1.319   2.256   1.903
   77C2M     H8 1460   1.335   1.994   1.572
   77C2M     H9 1461   1.255   2.226   1.528
   77C2M    H10 1462   1.164   2.292   1.667
   77C2M    H11 1463   1.332   2.346   1.635
   78C2M     C1 1464   0.147   1.403   5.709
   78C2M     C2 1465   0.188   1.323   5.831
   78C2M     N1 1466   0.257   1.200   5.793
   78C2M     C3 1467   0.198   1.075   5.774
   78C2M     C4 1468   0.298   0.989   5.740
   78C2M     N2 1469   0.416   1.063   5.739
   78C2M     C5 1470   0.389   1.190   5.772
   78C2M     C6 1471   0.548   1.010   5.708
   78C2M     H1 1472   0.235   1.429   5.649
   78C2M     H2 1473   0.096   1.495   5.739
   78C2M     H3 1474   0.080   1.345   5.645
   78C2M     H4 1475   0.255   1.382   5.895
   78C2M     H5 1476   0.100   1.297   5.891
   78C2M     H6 1477   0.092   1.065   5.787
   78C2M     H7 1478   0.302   0.884   5.716
   78C2M     H8 1479   0.461   1.271   5.779
   78C2M     H9 1480   0.622   1.091   5.714
   78C2M    H10 1481   0.574   0.932   5.780
   78C2M    H11 1482   0.548   0.969   5.606
   79C2M     C1 1483   5.153   3.712   5.436
   79C2M     C2 1484   5.198   3.795   5.555
   79C2M     N1 1485   5.276   3.911   5.512
   79C2M     C3 1486   5.414   3.917   5.498
   79C2M     C4 1487   5.444   4.043   5.456
   79C2M     N2 1488   5.324   4.111   5.444
   79C2M     C5 1489   5.223   4.030   5.478
   79C2M     C6 1490   5.309   4.250   5.402
   79C2M     H1 1491   5.091   3.772   5.369
   79C2M     H2 1492   5.094   3.626   5.470
   79C2M     H3 1493   5.239   3.675   5.379
   79C2M     H4 1494   5.112   3.831   5.612
   79C2M     H5 1495   5.260   3.735   5.623
   79C2M     H6 1496   5.473   3.829   5.521
   79C2M     H7 1497   5.536   4.093   5.432
   79C2M     H8 1498   5.118   4.055   5.479
   79C2M     H9 1499   5.203   4.277   5.400
   79C2M    H10 1500   5.363   4.315   5.471
   79C2M    H11 1501   5.351   4.261   5.301
   80C2M     C1 1502   1.844   5.466   4.853
   80C2M     C2 1503   1.871   5.594   4.776
   80C2M     N1 1504   1.935   5.566   4.648
   80C2M     C3 1505   2.071   5.563   4.623
   80C2M     C4 1506   2.087   5.534   4.491
   80C2M     N2 1507   1.960   5.520   4.438
   80C2M     C5 1508   1.869   5.539   4.534
   80C2M     C6 1509   1.929   5.488   4.299
   80C2M     H1 1510   1.779   5.399   4.795
   80C2M     H2 1511   1.795   5.487   4.949
   80C2M     H3 1512   1.937   5.412   4.873
   80C2M     H4 1513   1.777   5.647   4.757
   80C2M     H5 1514   1.935   5.660   4.834
   80C2M     H6 1515   2.140   5.583   4.704
   80C2M     H7 1516   2.173   5.521   4.427
   80C2M     H8 1517   1.761   5.535   4.522
   80C2M     H9 1518   1.821   5.482   4.285
   80C2M    H10 1519   1.969   5.567   4.235
   80C2M    H11 1520   1.975   5.392   4.273
   81C2M     C1 1521   4.855   0.461   0.516
   81C2M     C2 1522   4.854   0.453   0.668
   81C2M     N1 1523   4.899   0.321   0.714
   81C2M     C3 1524   4.817   0.212   0.741
   81C2M     C4 1525   4.899   0.111   0.781
   81C2M     N2 1526   5.028   0.160   0.777
   81C2M     C5 1527   5.027   0.287   0.736
   81C2M     C6 1528   5.149   0.085   0.811
   81C2M     H1 1529   4.956   0.443   0.477
   81C2M     H2 1530   4.822   0.560   0.483
   81C2M     H3 1531   4.789   0.386   0.473
   81C2M     H4 1532   4.921   0.528   0.711
   81C2M     H5 1533   4.753   0.471   0.706
   81C2M     H6 1534   4.711   0.222   0.728
   81C2M     H7 1535   4.882   0.009   0.812
   81C2M     H8 1536   5.113   0.352   0.723
   81C2M     H9 1537   5.237   0.148   0.798
   81C2M    H10 1538   5.142   0.053   0.916
   81C2M    H11 1539   5.157  -0.002   0.746
   82C2M     C1 1540   1.026   0.476   3.581
   82C2M     C2 1541   1.021   0.564   3.704
   82C2M     N1 1542   0.939   0.503   3.809
   82C2M     C3 1543   0.803   0.524   3.830
   82C2M     C4 1544   0.767   0.447   3.937
   82C2M     N2 1545   0.882   0.382   3.980
   82C2M     C5 1546   0.985   0.417   3.901
   82C2M     C6 1547   0.890   0.290   4.092
   82C2M     H1 1548   1.069   0.378   3.605
   82C2M     H2 1549   1.088   0.523   3.504
   82C2M     H3 1550   0.926   0.460   3.540
   82C2M     H4 1551   1.121   0.580   3.745
   82C2M     H5 1552   0.978   0.662   3.680
   82C2M     H6 1553   0.750   0.590   3.764
   82C2M     H7 1554   0.675   0.431   3.989
   82C2M     H8 1555   1.087   0.381   3.910
   82C2M     H9 1556   0.992   0.252   4.102
   82C2M    H10 1557   0.862   0.342   4.184
   82C2M    H11 1558   0.822   0.206   4.075
   83C2M     C1 1559   4.456   3.251   1.763
   83C2M     C2 1560   4.469   3.125   1.845
   83C2M     N1 1561   4.480   3.155   1.988
   83C2M     C3 1562   4.598   3.173   2.059
   83C2M     C4 1563   4.563   3.199   2.188
   83C2M     N2 1564   4.424   3.196   2.193
   83C2M     C5 1565   4.376   3.169   2.071
   83C2M     C6 1566   4.343   3.219   2.312
   83C2M     H1 1567   4.367   3.308   1.793
   83C2M     H2 1568   4.447   3.228   1.657
   83C2M     H3 1569   4.543   3.316   1.777
   83C2M     H4 1570   4.382   3.060   1.830
   83C2M     H5 1571   4.558   3.068   1.814
   83C2M     H6 1572   4.692   3.165   2.007
   83C2M     H7 1573   4.618   3.219   2.278
   83C2M     H8 1574   4.271   3.161   2.044
   83C2M     H9 1575   4.237   3.212   2.286
   83C2M    H10 1576   4.367   3.144   2.387
   83C2M    H11 1577   4.365   3.319   2.351
   84C2M     C1 1578   2.812   3.690   4.710
   84C2M     C2 1579   2.926   3.601   4.665
   84C2M     N1 1580   3.041   3.680   4.621
   84C2M     C3 1581   3.066   3.721   4.491
   84C2M     C4 1582   3.183   3.792   4.494
   84C2M     N2 1583   3.226   3.793   4.626
   84C2M     C5 1584   3.138   3.725   4.701
   84C2M     C6 1585   3.346   3.858   4.675
   84C2M     H1 1586   2.843   3.755   4.793
   84C2M     H2 1587   2.727   3.630   4.744
   84C2M     H3 1588   2.779   3.755   4.628
   84C2M     H4 1589   2.959   3.537   4.747
   84C2M     H5 1590   2.894   3.536   4.583
   84C2M     H6 1591   2.998   3.694   4.412
   84C2M     H7 1592   3.242   3.843   4.419
   84C2M     H8 1593   3.145   3.709   4.808
   84C2M     H9 1594   3.354   3.844   4.784
   84C2M    H10 1595   3.433   3.814   4.626
   84C2M    H11 1596   3.341   3.965   4.653
   85C2M     C1 1597   4.068   6.407   5.713
   85C2M     C2 1598   3.954   6.363   5.624
   85C2M     N1 1599   3.825   6.405   5.680
   85C2M     C3 1600   3.744   6.330   5.764
   85C2M     C4 1601   3.634   6.406   5.791
   85C2M     N2 1602   3.650   6.526   5.723
   85C2M     C5 1603   3.766   6.523   5.656
   85C2M     C6 1604   3.557   6.638   5.723
   85C2M     H1 1605   4.069   6.516   5.724
   85C2M     H2 1606   4.164   6.376   5.671
   85C2M     H3 1607   4.059   6.364   5.813
   85C2M     H4 1608   3.964   6.406   5.524
   85C2M     H5 1609   3.953   6.254   5.614
   85C2M     H6 1610   3.775   6.231   5.793
   85C2M     H7 1611   3.545   6.391   5.850
   85C2M     H8 1612   3.806   6.603   5.594
   85C2M     H9 1613   3.596   6.719   5.662
   85C2M    H10 1614   3.461   6.604   5.683
   85C2M    H11 1615   3.543   6.672   5.826
   86C2M     C1 1616   5.451   2.808   3.852
   86C2M     C2 1617   5.438   2.884   3.982
   86C2M     N1 1618   5.340   2.992   3.971
   86C2M     C3 1619   5.367   3.124   3.936
   86C2M     C4 1620   5.248   3.190   3.938
   86C2M     N2 1621   5.151   3.098   3.973
   86C2M     C5 1622   5.209   2.978   3.993
   86C2M     C6 1623   5.009   3.125   3.987
   86C2M     H1 1624   5.355   2.765   3.822
   86C2M     H2 1625   5.524   2.727   3.861
   86C2M     H3 1626   5.484   2.875   3.771
   86C2M     H4 1627   5.406   2.817   4.062
   86C2M     H5 1628   5.535   2.927   4.011
   86C2M     H6 1629   5.469   3.153   3.915
   86C2M     H7 1630   5.219   3.292   3.918
   86C2M     H8 1631   5.158   2.887   4.021
   86C2M     H9 1632   4.956   3.034   4.014
   86C2M    H10 1633   4.994   3.201   4.064
   86C2M    H11 1634   4.970   3.162   3.891
   87C2M     C1 1635   0.494   5.142   2.133
   87C2M     C2 1636   0.546   5.182   2.269
   87C2M     N1 1637   0.648   5.287   2.258
   87C2M     C3 1638   0.785   5.267   2.250
   87C2M     C4 1639   0.842   5.391   2.241
   87C2M     N2 1640   0.738   5.483   2.245
   87C2M     C5 1641   0.621   5.419   2.255
   87C2M     C6 1642   0.753   5.628   2.238
   87C2M     H1 1643   0.450   5.228   2.081
   87C2M     H2 1644   0.418   5.064   2.142
   87C2M     H3 1645   0.575   5.104   2.070
   87C2M     H4 1646   0.465   5.220   2.332
   87C2M     H5 1647   0.590   5.096   2.321
   87C2M     H6 1648   0.824   5.167   2.251
   87C2M     H7 1649   0.943   5.426   2.233
   87C2M     H8 1650   0.523   5.464   2.260
   87C2M     H9 1651   0.655   5.676   2.242
   87C2M    H10 1652   0.813   5.662   2.323
   87C2M    H11 1653   0.803   5.655   2.145
   88C2M     C1 1654   2.703   5.592   2.488
   88C2M     C2 1655   2.638   5.691   2.394
   88C2M     N1 1656   2.731   5.735   2.291
   88C2M     C3 1657   2.813   5.847   2.297
   88C2M     C4 1658   2.884   5.850   2.180
   88C2M     N2 1659   2.844   5.741   2.105
   88C2M     C5 1660   2.751   5.672   2.174
   88C2M     C6 1661   2.894   5.705   1.973
   88C2M     H1 1662   2.738   5.503   2.434
   88C2M     H2 1663   2.631   5.559   2.565
   88C2M     H3 1664   2.789   5.637   2.538
   88C2M     H4 1665   2.551   5.645   2.344
   88C2M     H5 1666   2.602   5.779   2.449
   88C2M     H6 1667   2.810   5.909   2.385
   88C2M     H7 1668   2.959   5.917   2.140
   88C2M     H8 1669   2.701   5.582   2.141
   88C2M     H9 1670   2.845   5.614   1.939
   88C2M    H10 1671   2.871   5.787   1.904
   88C2M    H11 1672   3.002   5.689   1.979
   89C2M     C1 1673   5.218   0.931   5.603
   89C2M     C2 1674   5.295   0.868   5.488
   89C2M     N1 1675   5.397   0.775   5.539
   89C2M     C3 1676   5.529   0.806   5.566
   89C2M     C4 1677   5.588   0.691   5.610
   89C2M     N2 1678   5.491   0.593   5.609
   89C2M     C5 1679   5.375   0.645   5.565
   89C2M     C6 1680   5.509   0.454   5.649
   89C2M     H1 1681   5.168   0.855   5.663
   89C2M     H2 1682   5.142   1.000   5.564
   89C2M     H3 1683   5.285   0.987   5.668
   89C2M     H4 1684   5.227   0.812   5.423
   89C2M     H5 1685   5.344   0.945   5.428
   89C2M     H6 1686   5.564   0.907   5.550
   89C2M     H7 1687   5.688   0.666   5.643
   89C2M     H8 1688   5.281   0.593   5.554
   89C2M     H9 1689   5.415   0.399   5.639
   89C2M    H10 1690   5.585   0.408   5.584
   89C2M    H11 1691   5.542   0.451   5.753
   90C2M     C1 1692   2.671   2.541   2.158
   90C2M     C2 1693   2.739   2.626   2.263
   90C2M     N1 1694   2.821   2.731   2.202
   90C2M     C3 1695   2.956   2.721   2.171
   90C2M     C4 1696   2.992   2.841   2.116
   90C2M     N2 1697   2.879   2.920   2.114
   90C2M     C5 1698   2.776   2.852   2.166
   90C2M     C6 1699   2.871   3.056   2.063
   90C2M     H1 1700   2.606   2.602   2.094
   90C2M     H2 1701   2.609   2.464   2.204
   90C2M     H3 1702   2.745   2.492   2.093
   90C2M     H4 1703   2.664   2.674   2.327
   90C2M     H5 1704   2.802   2.564   2.327
   90C2M     H6 1705   3.008   2.630   2.193
   90C2M     H7 1706   3.085   2.880   2.077
   90C2M     H8 1707   2.674   2.888   2.178
   90C2M     H9 1708   2.769   3.094   2.072
   90C2M    H10 1709   2.939   3.120   2.120
   90C2M    H11 1710   2.900   3.057   1.957
   91C2M     C1 1711   4.948   2.519   0.587
   91C2M     C2 1712   4.992   2.598   0.709
   91C2M     N1 1713   5.043   2.730   0.670
   91C2M     C3 1714   5.176   2.762   0.643
   91C2M     C4 1715   5.179   2.894   0.611
   91C2M     N2 1716   5.048   2.940   0.619
   91C2M     C5 1717   4.967   2.840   0.655
   91C2M     C6 1718   5.004   3.077   0.592
   91C2M     H1 1719   4.869   2.572   0.533
   91C2M     H2 1720   4.910   2.421   0.618
   91C2M     H3 1721   5.031   2.503   0.518
   91C2M     H4 1722   4.909   2.613   0.778
   91C2M     H5 1723   5.071   2.545   0.763
   91C2M     H6 1724   5.251   2.685   0.650
   91C2M     H7 1725   5.257   2.963   0.583
   91C2M     H8 1726   4.860   2.845   0.669
   91C2M     H9 1727   4.896   3.084   0.605
   91C2M    H10 1728   5.054   3.144   0.662
   91C2M    H11 1729   5.031   3.104   0.490
   92C2M     C1 1730   1.432   1.087   0.694
   92C2M     C2 1731   1.295   1.023   0.683
   92C2M     N1 1732   1.212   1.091   0.584
   92C2M     C3 1733   1.124   1.195   0.608
   92C2M     C4 1734   1.068   1.228   0.488
   92C2M     N2 1735   1.123   1.143   0.393
   92C2M     C5 1736   1.210   1.061   0.453
   92C2M     C6 1737   1.092   1.143   0.251
   92C2M     H1 1738   1.484   1.083   0.598
   92C2M     H2 1739   1.493   1.035   0.768
   92C2M     H3 1740   1.423   1.192   0.723
   92C2M     H4 1741   1.304   0.918   0.655
   92C2M     H5 1742   1.243   1.026   0.780
   92C2M     H6 1743   1.112   1.232   0.708
   92C2M     H7 1744   0.995   1.301   0.457
   92C2M     H8 1745   1.269   0.983   0.404
   92C2M     H9 1746   1.152   1.066   0.200
   92C2M    H10 1747   0.986   1.122   0.237
   92C2M    H11 1748   1.116   1.241   0.209
   93C2M     C1 1749   6.493   2.136   3.956
   93C2M     C2 1750   6.398   2.113   4.072
   93C2M     N1 1751   6.303   2.224   4.084
   93C2M     C3 1752   6.319   2.336   4.164
   93C2M     C4 1753   6.207   2.413   4.146
   93C2M     N2 1754   6.126   2.346   4.055
   93C2M     C5 1755   6.186   2.231   4.019
   93C2M     C6 1756   5.997   2.392   4.007
   93C2M     H1 1757   6.439   2.145   3.862
   93C2M     H2 1758   6.563   2.052   3.947
   93C2M     H3 1759   6.551   2.228   3.971
   93C2M     H4 1760   6.341   2.020   4.056
   93C2M     H5 1761   6.453   2.103   4.166
   93C2M     H6 1762   6.408   2.346   4.223
   93C2M     H7 1763   6.175   2.508   4.185
   93C2M     H8 1764   6.146   2.158   3.950
   93C2M     H9 1765   5.956   2.320   3.936
   93C2M    H10 1766   5.929   2.402   4.092
   93C2M    H11 1767   6.010   2.488   3.957
   94C2M     C1 1768   0.962   4.070   0.553
   94C2M     C2 1769   0.928   4.144   0.426
   94C2M     N1 1770   0.875   4.278   0.455
   94C2M     C3 1771   0.741   4.311   0.470
   94C2M     C4 1772   0.737   4.445   0.496
   94C2M     N2 1773   0.868   4.490   0.496
   94C2M     C5 1774   0.950   4.388   0.471
   94C2M     C6 1775   0.911   4.628   0.520
   94C2M     H1 1776   1.038   4.125   0.611
   94C2M     H2 1777   1.002   3.971   0.530
   94C2M     H3 1778   0.874   4.058   0.617
   94C2M     H4 1779   1.017   4.156   0.363
   94C2M     H5 1780   0.853   4.089   0.368
   94C2M     H6 1781   0.666   4.234   0.461
   94C2M     H7 1782   0.657   4.515   0.515
   94C2M     H8 1783   1.059   4.392   0.464
   94C2M     H9 1784   1.020   4.634   0.515
   94C2M    H10 1785   0.867   4.692   0.443
   94C2M    H11 1786   0.877   4.659   0.619
   95C2M     C1 1787   6.319   4.615   4.088
   95C2M     C2 1788   6.453   4.686   4.090
   95C2M     N1 1789   6.493   4.720   4.227
   95C2M     C3 1790   6.467   4.839   4.292
   95C2M     C4 1791   6.522   4.828   4.417
   95C2M     N2 1792   6.580   4.703   4.424
   95C2M     C5 1793   6.561   4.638   4.308
   95C2M     C6 1794   6.650   4.648   4.540
   95C2M     H1 1795   6.323   4.522   4.147
   95C2M     H2 1796   6.291   4.589   3.986
   95C2M     H3 1797   6.241   4.678   4.131
   95C2M     H4 1798   6.531   4.622   4.046
   95C2M     H5 1799   6.449   4.778   4.031
   95C2M     H6 1800   6.413   4.917   4.241
   95C2M     H7 1801   6.527   4.894   4.502
   95C2M     H8 1802   6.596   4.538   4.285
   95C2M     H9 1803   6.684   4.547   4.518
   95C2M    H10 1804   6.736   4.712   4.563
   95C2M    H11 1805   6.581   4.646   4.625
   96C2M     C1 1806   2.561   2.359   3.680
   96C2M     C2 1807   2.613   2.501   3.672
   96C2M     N1 1808   2.503   2.598   3.674
   96C2M     C3 1809   2.438   2.651   3.564
   96C2M     C4 1810   2.342   2.736   3.611
   96C2M     N2 1811   2.351   2.733   3.749
   96C2M     C5 1812   2.449   2.649   3.786
   96C2M     C6 1813   2.267   2.809   3.841
   96C2M     H1 1814   2.504   2.344   3.773
   96C2M     H2 1815   2.644   2.288   3.679
   96C2M     H3 1816   2.495   2.337   3.596
   96C2M     H4 1817   2.679   2.523   3.756
   96C2M     H5 1818   2.670   2.516   3.580
   96C2M     H6 1819   2.469   2.621   3.465
   96C2M     H7 1820   2.269   2.799   3.564
   96C2M     H8 1821   2.479   2.626   3.888
   96C2M     H9 1822   2.295   2.786   3.944
   96C2M    H10 1823   2.281   2.916   3.822
   96C2M    H11 1824   2.163   2.782   3.825
   97C2M     C1 1825   6.451   3.487   2.231
   97C2M     C2 1826   6.530   3.384   2.153
   97C2M     N1 1827   6.489   3.381   2.012
   97C2M     C3 1828   6.392   3.298   1.957
   97C2M     C4 1829   6.386   3.329   1.824
   97C2M     N2 1830   6.479   3.429   1.801
   97C2M     C5 1831   6.540   3.459   1.916
   97C2M     C6 1832   6.506   3.492   1.673
   97C2M     H1 1833   6.465   3.587   2.189
   97C2M     H2 1834   6.482   3.488   2.336
   97C2M     H3 1835   6.343   3.464   2.228
   97C2M     H4 1836   6.637   3.406   2.157
   97C2M     H5 1837   6.515   3.284   2.196
   97C2M     H6 1838   6.340   3.229   2.020
   97C2M     H7 1839   6.327   3.292   1.742
   97C2M     H8 1840   6.618   3.534   1.930
   97C2M     H9 1841   6.584   3.568   1.684
   97C2M    H10 1842   6.541   3.416   1.602
   97C2M    H11 1843   6.415   3.538   1.635
   98C2M     C1 1844   3.357   4.986   2.218
   98C2M     C2 1845   3.417   4.851   2.254
   98C2M     N1 1846   3.414   4.760   2.139
   98C2M     C3 1847   3.314   4.670   2.108
   98C2M     C4 1848   3.352   4.606   1.993
   98C2M     N2 1849   3.475   4.659   1.957
   98C2M     C5 1850   3.511   4.752   2.046
   98C2M     C6 1851   3.553   4.620   1.840
   98C2M     H1 1852   3.413   5.032   2.136
   98C2M     H2 1853   3.360   5.053   2.304
   98C2M     H3 1854   3.253   4.975   2.186
   98C2M     H4 1855   3.521   4.862   2.286
   98C2M     H5 1856   3.361   4.805   2.336
   98C2M     H6 1857   3.228   4.663   2.172
   98C2M     H7 1858   3.307   4.529   1.932
   98C2M     H8 1859   3.602   4.810   2.044
   98C2M     H9 1860   3.645   4.678   1.836
   98C2M    H10 1861   3.578   4.513   1.848
   98C2M    H11 1862   3.493   4.637   1.750
   99C2M     C1 1863   5.184   2.011   5.029
   99C2M     C2 1864   5.297   1.962   5.118
   99C2M     N1 1865   5.421   2.035   5.090
   99C2M     C3 1866   5.520   1.996   5.001
   99C2M     C4 1867   5.617   2.091   5.006
   99C2M     N2 1868   5.575   2.186   5.098
   99C2M     C5 1869   5.456   2.151   5.148
   99C2M     C6 1870   5.649   2.307   5.135
   99C2M     H1 1871   5.166   2.118   5.044
   99C2M     H2 1872   5.091   1.957   5.051
   99C2M     H3 1873   5.208   1.996   4.923
   99C2M     H4 1874   5.271   1.977   5.223
   99C2M     H5 1875   5.314   1.855   5.103
   99C2M     H6 1876   5.508   1.904   4.945
   99C2M     H7 1877   5.712   2.105   4.956
   99C2M     H8 1878   5.399   2.205   5.222
   99C2M     H9 1879   5.592   2.364   5.209
   99C2M    H10 1880   5.745   2.278   5.178
   99C2M    H11 1881   5.664   2.368   5.046
  100C2M     C1 1882   6.202   0.098   4.039
  100C2M     C2 1883   6.194   0.073   4.188
  100C2M     N1 1884   6.222   0.195   4.264
  100C2M     C3 1885   6.346   0.234   4.311
  100C2M     C4 1886   6.328   0.353   4.376
  100C2M     N2 1887   6.193   0.384   4.366
  100C2M     C5 1888   6.130   0.287   4.298
  100C2M     C6 1889   6.129   0.502   4.421
  100C2M     H1 1890   6.130   0.175   4.008
  100C2M     H2 1891   6.180   0.007   3.983
  100C2M     H3 1892   6.302   0.133   4.010
  100C2M     H4 1893   6.094   0.038   4.216
  100C2M     H5 1894   6.265  -0.004   4.218
  100C2M     H6 1895   6.432   0.172   4.293
  100C2M     H7 1896   6.394   0.421   4.428
  100C2M     H8 1897   6.025   0.283   4.274
  100C2M     H9 1898   6.022   0.501   4.397
  100C2M    H10 1899   6.142   0.503   4.530
  100C2M    H11 1900   6.174   0.591   4.377
  101C2M     C1 1901   1.975   6.213   3.065
  101C2M     C2 1902   1.963   6.126   2.942
  101C2M     N1 1903   1.934   5.987   2.978
  101C2M     C3 1904   2.028   5.887   2.998
  101C2M     C4 1905   1.959   5.774   3.030
  101C2M     N2 1906   1.825   5.807   3.029
  101C2M     C5 1907   1.811   5.937   2.997
  101C2M     C6 1908   1.714   5.717   3.057
  101C2M     H1 1909   1.882   6.211   3.123
  101C2M     H2 1910   1.996   6.317   3.037
  101C2M     H3 1911   2.056   6.178   3.130
  101C2M     H4 1912   1.882   6.162   2.877
  101C2M     H5 1913   2.056   6.129   2.884
  101C2M     H6 1914   2.133   5.910   2.987
  101C2M     H7 1915   1.988   5.673   3.054
  101C2M     H8 1916   1.718   5.992   2.988
  101C2M     H9 1917   1.619   5.771   3.050
  101C2M    H10 1918   1.715   5.635   2.985
  101C2M    H11 1919   1.726   5.677   3.158
  102C2M     C1 1920   2.640   6.115   4.021
  102C2M     C2 1921   2.600   6.139   4.166
  102C2M     N1 1922   2.654   6.035   4.254
  102C2M     C3 1923   2.589   5.918   4.291
  102C2M     C4 1924   2.675   5.851   4.373
  102C2M     N2 1925   2.789   5.928   4.384
  102C2M     C5 1926   2.775   6.040   4.311
  102C2M     C6 1927   2.907   5.895   4.463
  102C2M     H1 1928   2.749   6.114   4.011
  102C2M     H2 1929   2.600   6.193   3.957
  102C2M     H3 1930   2.603   6.018   3.986
  102C2M     H4 1931   2.637   6.236   4.200
  102C2M     H5 1932   2.491   6.140   4.175
  102C2M     H6 1933   2.490   5.898   4.254
  102C2M     H7 1934   2.669   5.757   4.426
  102C2M     H8 1935   2.848   6.119   4.300
  102C2M     H9 1936   2.983   5.973   4.452
  102C2M    H10 1937   2.879   5.885   4.568
  102C2M    H11 1938   2.948   5.800   4.427
  103C2M     C1 1939   3.932   4.447   4.880
  103C2M     C2 1940   3.933   4.356   5.001
  103C2M     N1 1941   3.937   4.215   4.961
  103C2M     C3 1942   3.827   4.132   4.942
  103C2M     C4 1943   3.876   4.010   4.905
  103C2M     N2 1944   4.014   4.021   4.904
  103C2M     C5 1945   4.049   4.146   4.938
  103C2M     C6 1946   4.107   3.914   4.870
  103C2M     H1 1947   4.022   4.431   4.819
  103C2M     H2 1948   3.930   4.552   4.911
  103C2M     H3 1949   3.845   4.427   4.816
  103C2M     H4 1950   4.020   4.376   5.064
  103C2M     H5 1951   3.843   4.373   5.062
  103C2M     H6 1952   3.728   4.172   4.956
  103C2M     H7 1953   3.830   3.916   4.880
  103C2M     H8 1954   4.151   4.184   4.945
  103C2M     H9 1955   4.210   3.951   4.876
  103C2M    H10 1956   4.095   3.832   4.941
  103C2M    H11 1957   4.087   3.879   4.769
  104C2M     C1 1958   4.667   3.611   5.540
  104C2M     C2 1959   4.800   3.589   5.609
  104C2M     N1 1960   4.788   3.605   5.754
  104C2M     C3 1961   4.809   3.722   5.825
  104C2M     C4 1962   4.786   3.692   5.957
  104C2M     N2 1963   4.752   3.558   5.963
  104C2M     C5 1964   4.754   3.507   5.839
  104C2M     C6 1965   4.720   3.484   6.084
  104C2M     H1 1966   4.592   3.540   5.576
  104C2M     H2 1967   4.678   3.598   5.432
  104C2M     H3 1968   4.629   3.712   5.559
  104C2M     H4 1969   4.838   3.488   5.589
  104C2M     H5 1970   4.875   3.660   5.572
  104C2M     H6 1971   4.837   3.812   5.773
  104C2M     H7 1972   4.790   3.750   6.048
  104C2M     H8 1973   4.731   3.404   5.812
  104C2M     H9 1974   4.696   3.380   6.058
  104C2M    H10 1975   4.806   3.486   6.151
  104C2M    H11 1976   4.634   3.530   6.132
  105C2M     C1 1977   1.643   0.325   4.575
  105C2M     C2 1978   1.561   0.385   4.462
  105C2M     N1 1979   1.531   0.526   4.488
  105C2M     C3 1980   1.418   0.576   4.551
  105C2M     C4 1981   1.431   0.712   4.553
  105C2M     N2 1982   1.552   0.742   4.492
  105C2M     C5 1983   1.611   0.628   4.453
  105C2M     C6 1984   1.606   0.876   4.473
  105C2M     H1 1985   1.738   0.379   4.587
  105C2M     H2 1986   1.665   0.220   4.555
  105C2M     H3 1987   1.589   0.332   4.670
  105C2M     H4 1988   1.616   0.378   4.368
  105C2M     H5 1989   1.467   0.331   4.450
  105C2M     H6 1990   1.343   0.507   4.585
  105C2M     H7 1991   1.370   0.792   4.591
  105C2M     H8 1992   1.707   0.620   4.402
  105C2M     H9 1993   1.703   0.870   4.423
  105C2M    H10 1994   1.537   0.934   4.411
  105C2M    H11 1995   1.618   0.924   4.571
  106C2M     C1 1996   1.259   3.940   1.722
  106C2M     C2 1997   1.163   3.864   1.632
  106C2M     N1 1998   1.196   3.721   1.629
  106C2M     C3 1999   1.279   3.658   1.538
  106C2M     C4 2000   1.282   3.526   1.572
  106C2M     N2 2001   1.201   3.512   1.683
  106C2M     C5 2002   1.150   3.631   1.717
  106C2M     C6 2003   1.175   3.387   1.754
  106C2M     H1 2004   1.255   3.902   1.824
  106C2M     H2 2005   1.233   4.047   1.723
  106C2M     H3 2006   1.362   3.930   1.686
  106C2M     H4 2007   1.060   3.875   1.668
  106C2M     H5 2008   1.167   3.903   1.530
  106C2M     H6 2009   1.325   3.717   1.460
  106C2M     H7 2010   1.331   3.440   1.531
  106C2M     H8 2011   1.083   3.651   1.800
  106C2M     H9 2012   1.109   3.405   1.839
  106C2M    H10 2013   1.128   3.316   1.685
  106C2M    H11 2014   1.270   3.346   1.790
  107C2M     C1 2015   5.943   3.429   5.910
  107C2M     C2 2016   6.089   3.390   5.894
  107C2M     N1 2017   6.146   3.347   6.022
  107C2M     C3 2018   6.213   3.428   6.112
  107C2M     C4 2019   6.250   3.348   6.217
  107C2M     N2 2020   6.204   3.221   6.188
  107C2M     C5 2021   6.142   3.222   6.069
  107C2M     C6 2022   6.221   3.103   6.272
  107C2M     H1 2023   5.884   3.345   5.948
  107C2M     H2 2024   5.901   3.460   5.814
  107C2M     H3 2025   5.933   3.512   5.981
  107C2M     H4 2026   6.099   3.307   5.823
  107C2M     H5 2027   6.147   3.474   5.855
  107C2M     H6 2028   6.226   3.533   6.090
  107C2M     H7 2029   6.303   3.366   6.309
  107C2M     H8 2030   6.096   3.137   6.020
  107C2M     H9 2031   6.174   3.017   6.225
  107C2M    H10 2032   6.328   3.084   6.286
  107C2M    H11 2033   6.174   3.122   6.369
  108C2M     C1 2034   1.046   1.038   2.686
  108C2M     C2 2035   1.182   0.978   2.655
  108C2M     N1 2036   1.181   0.833   2.673
  108C2M     C3 2037   1.215   0.764   2.788
  108C2M     C4 2038   1.201   0.631   2.761
  108C2M     N2 2039   1.159   0.622   2.629
  108C2M     C5 2040   1.148   0.745   2.577
  108C2M     C6 2041   1.131   0.498   2.557
  108C2M     H1 2042   0.969   0.995   2.620
  108C2M     H2 2043   1.047   1.146   2.672
  108C2M     H3 2044   1.016   1.016   2.789
  108C2M     H4 2045   1.211   1.001   2.552
  108C2M     H5 2046   1.258   1.021   2.721
  108C2M     H6 2047   1.245   0.820   2.876
  108C2M     H7 2048   1.215   0.541   2.818
  108C2M     H8 2049   1.117   0.769   2.476
  108C2M     H9 2050   1.099   0.521   2.455
  108C2M    H10 2051   1.222   0.438   2.554
  108C2M    H11 2052   1.052   0.444   2.609
  109C2M     C1 2053   0.760   1.090   3.180
  109C2M     C2 2054   0.867   1.145   3.272
  109C2M     N1 2055   0.827   1.131   3.413
  109C2M     C3 2056   0.761   1.226   3.489
  109C2M     C4 2057   0.745   1.172   3.613
  109C2M     N2 2058   0.801   1.045   3.610
  109C2M     C5 2059   0.851   1.022   3.488
  109C2M     C6 2060   0.806   0.952   3.722
  109C2M     H1 2061   0.741   0.984   3.200
  109C2M     H2 2062   0.790   1.100   3.075
  109C2M     H3 2063   0.665   1.143   3.194
  109C2M     H4 2064   0.961   1.091   3.258
  109C2M     H5 2065   0.885   1.251   3.251
  109C2M     H6 2066   0.734   1.320   3.444
  109C2M     H7 2067   0.700   1.207   3.705
  109C2M     H8 2068   0.901   0.931   3.455
  109C2M     H9 2069   0.856   0.859   3.690
  109C2M    H10 2070   0.863   0.997   3.804
  109C2M    H11 2071   0.704   0.929   3.754
  110C2M     C1 2072   3.822   3.676   2.846
  110C2M     C2 2073   3.907   3.572   2.917
  110C2M     N1 2074   4.045   3.575   2.869
  110C2M     C3 2075   4.098   3.498   2.767
  110C2M     C4 2076   4.230   3.532   2.756
  110C2M     N2 2077   4.254   3.629   2.852
  110C2M     C5 2078   4.141   3.654   2.920
  110C2M     C6 2079   4.382   3.694   2.876
  110C2M     H1 2080   3.862   3.776   2.862
  110C2M     H2 2081   3.719   3.673   2.882
  110C2M     H3 2082   3.821   3.658   2.738
  110C2M     H4 2083   3.907   3.590   3.025
  110C2M     H5 2084   3.866   3.472   2.900
  110C2M     H6 2085   4.034   3.429   2.714
  110C2M     H7 2086   4.310   3.500   2.692
  110C2M     H8 2087   4.130   3.725   3.001
  110C2M     H9 2088   4.372   3.767   2.957
  110C2M    H10 2089   4.456   3.619   2.904
  110C2M    H11 2090   4.414   3.746   2.785
  111C2M     C1 2091   3.532   6.099   2.373
  111C2M     C2 2092   3.604   6.081   2.506
  111C2M     N1 2093   3.747   6.059   2.486
  111C2M     C3 2094   3.810   5.936   2.475
  111C2M     C4 2095   3.943   5.961   2.458
  111C2M     N2 2096   3.958   6.099   2.459
  111C2M     C5 2097   3.839   6.157   2.476
  111C2M     C6 2098   4.084   6.170   2.444
  111C2M     H1 2099   3.573   6.184   2.318
  111C2M     H2 2100   3.425   6.116   2.389
  111C2M     H3 2101   3.544   6.010   2.311
  111C2M     H4 2102   3.591   6.170   2.568
  111C2M     H5 2103   3.562   5.996   2.561
  111C2M     H6 2104   3.751   5.846   2.480
  111C2M     H7 2105   4.030   5.898   2.444
  111C2M     H8 2106   3.819   6.263   2.481
  111C2M     H9 2107   4.066   6.278   2.447
  111C2M    H10 2108   4.152   6.142   2.525
  111C2M    H11 2109   4.129   6.144   2.347
  112C2M     C1 2110   2.665   1.725   3.356
  112C2M     C2 2111   2.654   1.793   3.221
  112C2M     N1 2112   2.639   1.938   3.237
  112C2M     C3 2113   2.519   2.008   3.244
  112C2M     C4 2114   2.551   2.140   3.258
  112C2M     N2 2115   2.689   2.148   3.259
  112C2M     C5 2116   2.741   2.025   3.246
  112C2M     C6 2117   2.767   2.270   3.273
  112C2M     H1 2118   2.752   1.762   3.412
  112C2M     H2 2119   2.677   1.617   3.343
  112C2M     H3 2120   2.576   1.743   3.416
  112C2M     H4 2121   2.744   1.774   3.161
  112C2M     H5 2122   2.568   1.755   3.165
  112C2M     H6 2123   2.427   1.953   3.238
  112C2M     H7 2124   2.493   2.230   3.268
  112C2M     H8 2125   2.847   2.000   3.244
  112C2M     H9 2126   2.874   2.247   3.272
  112C2M    H10 2127   2.744   2.337   3.189
  112C2M    H11 2128   2.742   2.319   3.367
  113C2M     C1 2129   2.836   1.857   5.194
  113C2M     C2 2130   2.758   1.742   5.131
  113C2M     N1 2131   2.791   1.728   4.989
  113C2M     C3 2132   2.724   1.787   4.883
  113C2M     C4 2133   2.787   1.748   4.769
  113C2M     N2 2134   2.892   1.666   4.808
  113C2M     C5 2135   2.893   1.655   4.941
  113C2M     C6 2136   2.987   1.601   4.718
  113C2M     H1 2137   2.944   1.840   5.185
  113C2M     H2 2138   2.811   1.866   5.300
  113C2M     H3 2139   2.812   1.951   5.145
  113C2M     H4 2140   2.782   1.648   5.181
  113C2M     H5 2141   2.651   1.759   5.141
  113C2M     H6 2142   2.639   1.850   4.904
  113C2M     H7 2143   2.772   1.768   4.664
  113C2M     H8 2144   2.963   1.597   5.000
  113C2M     H9 2145   3.059   1.543   4.776
  113C2M    H10 2146   2.932   1.534   4.651
  113C2M    H11 2147   3.039   1.678   4.660
  114C2M     C1 2148   5.479   6.648   0.680
  114C2M     C2 2149   5.390   6.656   0.802
  114C2M     N1 2150   5.445   6.577   0.913
  114C2M     C3 2151   5.416   6.445   0.942
  114C2M     C4 2152   5.488   6.412   1.052
  114C2M     N2 2153   5.561   6.524   1.088
  114C2M     C5 2154   5.533   6.624   1.003
  114C2M     C6 2155   5.652   6.534   1.201
  114C2M     H1 2156   5.579   6.686   0.702
  114C2M     H2 2157   5.437   6.707   0.598
  114C2M     H3 2158   5.489   6.545   0.646
  114C2M     H4 2159   5.380   6.760   0.836
  114C2M     H5 2160   5.290   6.618   0.779
  114C2M     H6 2161   5.346   6.392   0.879
  114C2M     H7 2162   5.499   6.322   1.111
  114C2M     H8 2163   5.575   6.724   1.005
  114C2M     H9 2164   5.696   6.634   1.205
  114C2M    H10 2165   5.597   6.515   1.294
  114C2M    H11 2166   5.732   6.460   1.189
  115C2M     C1 2167   2.157   4.451   2.354
  115C2M     C2 2168   2.274   4.360   2.325
  115C2M     N1 2169   2.353   4.410   2.213
  115C2M     C3 2170   2.337   4.375   2.079
  115C2M     C4 2171   2.431   4.445   2.009
  115C2M     N2 2172   2.503   4.520   2.101
  115C2M     C5 2173   2.454   4.498   2.224
  115C2M     C6 2174   2.614   4.609   2.069
  115C2M     H1 2175   2.191   4.552   2.379
  115C2M     H2 2176   2.098   4.413   2.439
  115C2M     H3 2177   2.091   4.459   2.267
  115C2M     H4 2178   2.339   4.353   2.412
  115C2M     H5 2179   2.239   4.259   2.301
  115C2M     H6 2180   2.260   4.306   2.052
  115C2M     H7 2181   2.457   4.450   1.904
  115C2M     H8 2182   2.490   4.542   2.316
  115C2M     H9 2183   2.650   4.656   2.161
  115C2M    H10 2184   2.694   4.551   2.023
  115C2M    H11 2185   2.579   4.686   2.000
  116C2M     C1 2186   3.566   4.811   3.181
  116C2M     C2 2187   3.583   4.718   3.063
  116C2M     N1 2188   3.589   4.578   3.106
  116C2M     C3 2189   3.704   4.506   3.136
  116C2M     C4 2190   3.664   4.381   3.172
  116C2M     N2 2191   3.526   4.379   3.163
  116C2M     C5 2192   3.482   4.499   3.123
  116C2M     C6 2193   3.440   4.264   3.192
  116C2M     H1 2194   3.474   4.788   3.235
  116C2M     H2 2195   3.561   4.915   3.147
  116C2M     H3 2196   3.649   4.801   3.251
  116C2M     H4 2197   3.500   4.728   2.993
  116C2M     H5 2198   3.675   4.741   3.008
  116C2M     H6 2199   3.800   4.555   3.128
  116C2M     H7 2200   3.716   4.292   3.203
  116C2M     H8 2201   3.378   4.527   3.107
  116C2M     H9 2202   3.336   4.291   3.178
  116C2M    H10 2203   3.466   4.182   3.125
  116C2M    H11 2204   3.456   4.234   3.296
  117C2M     C1 2205   4.952   0.171   4.477
  117C2M     C2 2206   4.882   0.221   4.351
  117C2M     N1 2207   4.742   0.179   4.348
  117C2M     C3 2208   4.692   0.064   4.289
  117C2M     C4 2209   4.557   0.064   4.309
  117C2M     N2 2210   4.528   0.179   4.381
  117C2M     C5 2211   4.641   0.248   4.403
  117C2M     C6 2212   4.395   0.220   4.424
  117C2M     H1 2213   4.902   0.210   4.566
  117C2M     H2 2214   5.056   0.203   4.478
  117C2M     H3 2215   4.949   0.062   4.482
  117C2M     H4 2216   4.886   0.330   4.347
  117C2M     H5 2217   4.933   0.182   4.262
  117C2M     H6 2218   4.760  -0.003   4.239
  117C2M     H7 2219   4.478  -0.003   4.282
  117C2M     H8 2220   4.649   0.342   4.457
  117C2M     H9 2221   4.402   0.314   4.480
  117C2M    H10 2222   4.331   0.234   4.337
  117C2M    H11 2223   4.354   0.143   4.490
  118C2M     C1 2224   1.052   4.815   1.010
  118C2M     C2 2225   1.145   4.906   1.087
  118C2M     N1 2226   1.224   4.990   0.997
  118C2M     C3 2227   1.350   4.960   0.948
  118C2M     C4 2228   1.387   5.065   0.868
  118C2M     N2 2229   1.283   5.156   0.871
  118C2M     C5 2230   1.185   5.109   0.950
  118C2M     C6 2231   1.279   5.283   0.800
  118C2M     H1 2232   0.983   4.873   0.948
  118C2M     H2 2233   0.993   4.753   1.078
  118C2M     H3 2234   1.108   4.749   0.943
  118C2M     H4 2235   1.087   4.972   1.154
  118C2M     H5 2236   1.213   4.847   1.150
  118C2M     H6 2237   1.397   4.867   0.976
  118C2M     H7 2238   1.474   5.087   0.809
  118C2M     H8 2239   1.090   5.158   0.971
  118C2M     H9 2240   1.184   5.334   0.820
  118C2M    H10 2241   1.361   5.346   0.835
  118C2M    H11 2242   1.289   5.264   0.693
  119C2M     C1 2243   3.317   4.292   2.890
  119C2M     C2 2244   3.442   4.284   2.805
  119C2M     N1 2245   3.453   4.401   2.718
  119C2M     C3 2246   3.406   4.411   2.587
  119C2M     C4 2247   3.438   4.537   2.544
  119C2M     N2 2248   3.504   4.600   2.648
  119C2M     C5 2249   3.512   4.517   2.753
  119C2M     C6 2250   3.556   4.736   2.645
  119C2M     H1 2251   3.318   4.382   2.953
  119C2M     H2 2252   3.309   4.204   2.955
  119C2M     H3 2253   3.227   4.296   2.827
  119C2M     H4 2254   3.531   4.280   2.868
  119C2M     H5 2255   3.440   4.194   2.743
  119C2M     H6 2256   3.356   4.327   2.543
  119C2M     H7 2257   3.423   4.590   2.451
  119C2M     H8 2258   3.558   4.539   2.848
  119C2M     H9 2259   3.602   4.761   2.741
  119C2M    H10 2260   3.631   4.744   2.566
  119C2M    H11 2261   3.474   4.806   2.625
  120C2M     C1 2262   3.237   1.666   5.734
  120C2M     C2 2263   3.191   1.525   5.766
  120C2M     N1 2264   3.175   1.506   5.911
  120C2M     C3 2265   3.272   1.459   5.998
  120C2M     C4 2266   3.215   1.457   6.123
  120C2M     N2 2267   3.085   1.504   6.108
  120C2M     C5 2268   3.063   1.533   5.979
  120C2M     C6 2269   2.988   1.520   6.215
  120C2M     H1 2270   3.165   1.739   5.770
  120C2M     H2 2271   3.249   1.678   5.626
  120C2M     H3 2272   3.333   1.687   5.782
  120C2M     H4 2273   3.095   1.504   5.718
  120C2M     H5 2274   3.264   1.451   5.730
  120C2M     H6 2275   3.369   1.432   5.960
  120C2M     H7 2276   3.250   1.429   6.220
  120C2M     H8 2277   2.970   1.572   5.937
  120C2M     H9 2278   2.894   1.560   6.175
  120C2M    H10 2279   2.969   1.422   6.260
  120C2M    H11 2280   3.028   1.589   6.290
  121C2M     C1 2281   4.447   1.631   2.488
  121C2M     C2 2282   4.311   1.565   2.472
  121C2M     N1 2283   4.229   1.586   2.592
  121C2M     C3 2284   4.220   1.501   2.701
  121C2M     C4 2285   4.132   1.558   2.788
  121C2M     N2 2286   4.089   1.676   2.731
  121C2M     C5 2287   4.149   1.692   2.611
  121C2M     C6 2288   3.995   1.770   2.789
  121C2M     H1 2289   4.436   1.739   2.504
  121C2M     H2 2290   4.507   1.616   2.398
  121C2M     H3 2291   4.501   1.590   2.574
  121C2M     H4 2292   4.258   1.606   2.386
  121C2M     H5 2293   4.323   1.457   2.456
  121C2M     H6 2294   4.278   1.410   2.702
  121C2M     H7 2295   4.094   1.530   2.885
  121C2M     H8 2296   4.135   1.775   2.543
  121C2M     H9 2297   3.980   1.855   2.722
  121C2M    H10 2298   3.899   1.719   2.805
  121C2M    H11 2299   4.034   1.805   2.885
  122C2M     C1 2300   2.169   3.641   5.467
  122C2M     C2 2301   2.154   3.593   5.610
  122C2M     N1 2302   2.171   3.448   5.618
  122C2M     C3 2303   2.070   3.353   5.611
  122C2M     C4 2304   2.130   3.231   5.623
  122C2M     N2 2305   2.266   3.254   5.637
  122C2M     C5 2306   2.289   3.386   5.634
  122C2M     C6 2307   2.368   3.151   5.653
  122C2M     H1 2308   2.268   3.616   5.427
  122C2M     H2 2309   2.156   3.750   5.462
  122C2M     H3 2310   2.094   3.595   5.402
  122C2M     H4 2311   2.229   3.640   5.674
  122C2M     H5 2312   2.055   3.619   5.649
  122C2M     H6 2313   1.968   3.385   5.598
  122C2M     H7 2314   2.093   3.129   5.623
  122C2M     H8 2315   2.386   3.434   5.642
  122C2M     H9 2316   2.467   3.198   5.660
  122C2M    H10 2317   2.348   3.094   5.744
  122C2M    H11 2318   2.366   3.085   5.566
  123C2M     C1 2319   0.790   4.551   1.992
  123C2M     C2 2320   0.680   4.652   2.020
  123C2M     N1 2321   0.608   4.620   2.143
  123C2M     C3 2322   0.493   4.543   2.152
  123C2M     C4 2323   0.459   4.538   2.284
  123C2M     N2 2324   0.555   4.611   2.353
  123C2M     C5 2325   0.644   4.660   2.265
  123C2M     C6 2326   0.558   4.633   2.497
  123C2M     H1 2327   0.862   4.549   2.075
  123C2M     H2 2328   0.843   4.577   1.900
  123C2M     H3 2329   0.748   4.451   1.981
  123C2M     H4 2330   0.722   4.753   2.030
  123C2M     H5 2331   0.609   4.655   1.937
  123C2M     H6 2332   0.449   4.502   2.062
  123C2M     H7 2333   0.380   4.491   2.339
  123C2M     H8 2334   0.730   4.722   2.289
  123C2M     H9 2335   0.645   4.694   2.523
  123C2M    H10 2336   0.467   4.685   2.527
  123C2M    H11 2337   0.565   4.536   2.547
  124C2M     C1 2338   3.443   0.793   4.602
  124C2M     C2 2339   3.510   0.728   4.482
  124C2M     N1 2340   3.411   0.692   4.380
  124C2M     C3 2341   3.348   0.569   4.368
  124C2M     C4 2342   3.264   0.578   4.260
  124C2M     N2 2343   3.279   0.706   4.209
  124C2M     C5 2344   3.369   0.773   4.283
  124C2M     C6 2345   3.209   0.760   4.093
  124C2M     H1 2346   3.389   0.883   4.572
  124C2M     H2 2347   3.518   0.820   4.677
  124C2M     H3 2348   3.371   0.725   4.648
  124C2M     H4 2349   3.582   0.797   4.437
  124C2M     H5 2350   3.564   0.638   4.512
  124C2M     H6 2351   3.370   0.491   4.439
  124C2M     H7 2352   3.196   0.510   4.213
  124C2M     H8 2353   3.401   0.876   4.267
  124C2M     H9 2354   3.239   0.863   4.076
  124C2M    H10 2355   3.234   0.700   4.005
  124C2M    H11 2356   3.101   0.756   4.112
  125C2M     C1 2357   4.005   2.977   2.991
  125C2M     C2 2358   4.145   3.003   3.042
  125C2M     N1 2359   4.217   2.877   3.065
  125C2M     C3 2360   4.222   2.807   3.184
  125C2M     C4 2361   4.299   2.696   3.161
  125C2M     N2 2362   4.338   2.701   3.029
  125C2M     C5 2363   4.287   2.812   2.972
  125C2M     C6 2364   4.421   2.603   2.960
  125C2M     H1 2365   4.007   2.922   2.897
  125C2M     H2 2366   3.952   3.072   2.974
  125C2M     H3 2367   3.947   2.918   3.063
  125C2M     H4 2368   4.202   3.062   2.970
  125C2M     H5 2369   4.142   3.059   3.136
  125C2M     H6 2370   4.171   2.845   3.271
  125C2M     H7 2371   4.331   2.613   3.222
  125C2M     H8 2372   4.301   2.843   2.869
  125C2M     H9 2373   4.435   2.632   2.856
  125C2M    H10 2374   4.519   2.598   3.010
  125C2M    H11 2375   4.372   2.505   2.965
  126C2M     C1 2376   0.850   2.862   6.773
  126C2M     C2 2377   0.889   2.839   6.628
  126C2M     N1 2378   0.970   2.718   6.614
  126C2M     C3 2379   1.108   2.712   6.616
  126C2M     C4 2380   1.142   2.580   6.599
  126C2M     N2 2381   1.023   2.510   6.587
  126C2M     C5 2382   0.920   2.595   6.596
  126C2M     C6 2383   1.011   2.366   6.567
  126C2M     H1 2384   0.793   2.778   6.812
  126C2M     H2 2385   0.790   2.953   6.782
  126C2M     H3 2386   0.939   2.874   6.836
  126C2M     H4 2387   0.800   2.828   6.566
  126C2M     H5 2388   0.946   2.924   6.589
  126C2M     H6 2389   1.165   2.802   6.630
  126C2M     H7 2390   1.235   2.527   6.595
  126C2M     H8 2391   0.815   2.569   6.590
  126C2M     H9 2392   0.906   2.338   6.562
  126C2M    H10 2393   1.061   2.338   6.474
  126C2M    H11 2394   1.059   2.314   6.651
  127C2M     C1 2395   3.454   4.221   2.304
  127C2M     C2 2396   3.542   4.165   2.194
  127C2M     N1 2397   3.638   4.265   2.147
  127C2M     C3 2398   3.619   4.352   2.041
  127C2M     C4 2399   3.733   4.427   2.031
  127C2M     N2 2400   3.818   4.384   2.132
  127C2M     C5 2401   3.759   4.286   2.201
  127C2M     C6 2402   3.951   4.437   2.159
  127C2M     H1 2403   3.515   4.254   2.389
  127C2M     H2 2404   3.383   4.145   2.339
  127C2M     H3 2405   3.398   4.307   2.268
  127C2M     H4 2406   3.598   4.078   2.231
  127C2M     H5 2407   3.481   4.132   2.109
  127C2M     H6 2408   3.527   4.349   1.986
  127C2M     H7 2409   3.764   4.507   1.966
  127C2M     H8 2410   3.801   4.232   2.285
  127C2M     H9 2411   3.995   4.386   2.244
  127C2M    H10 2412   4.014   4.422   2.071
  127C2M    H11 2413   3.943   4.544   2.181
  128C2M     C1 2414   5.634   0.395   2.556
  128C2M     C2 2415   5.738   0.389   2.666
  128C2M     N1 2416   5.694   0.463   2.785
  128C2M     C3 2417   5.721   0.597   2.812
  128C2M     C4 2418   5.661   0.625   2.932
  128C2M     N2 2419   5.598   0.509   2.974
  128C2M     C5 2420   5.619   0.412   2.883
  128C2M     C6 2421   5.522   0.493   3.097
  128C2M     H1 2422   5.539   0.352   2.590
  128C2M     H2 2423   5.668   0.339   2.468
  128C2M     H3 2424   5.616   0.498   2.525
  128C2M     H4 2425   5.756   0.285   2.696
  128C2M     H5 2426   5.833   0.431   2.632
  128C2M     H6 2427   5.780   0.654   2.743
  128C2M     H7 2428   5.654   0.713   2.993
  128C2M     H8 2429   5.582   0.310   2.889
  128C2M     H9 2430   5.483   0.391   3.104
  128C2M    H10 2431   5.587   0.513   3.182
  128C2M    H11 2432   5.438   0.564   3.096
  129C2M     C1 2433   3.336   2.262   0.724
  129C2M     C2 2434   3.425   2.219   0.609
  129C2M     N1 2435   3.555   2.171   0.657
  129C2M     C3 2436   3.670   2.247   0.673
  129C2M     C4 2437   3.766   2.162   0.720
  129C2M     N2 2438   3.708   2.037   0.732
  129C2M     C5 2439   3.580   2.044   0.693
  129C2M     C6 2440   3.775   1.916   0.778
  129C2M     H1 2441   3.318   2.178   0.792
  129C2M     H2 2442   3.240   2.297   0.687
  129C2M     H3 2443   3.383   2.342   0.781
  129C2M     H4 2444   3.378   2.139   0.551
  129C2M     H5 2445   3.442   2.303   0.540
  129C2M     H6 2446   3.667   2.352   0.649
  129C2M     H7 2447   3.870   2.175   0.747
  129C2M     H8 2448   3.509   1.962   0.691
  129C2M     H9 2449   3.705   1.833   0.778
  129C2M    H10 2450   3.859   1.894   0.711
  129C2M    H11 2451   3.812   1.933   0.880
  130C2M     C1 2452   0.816   2.038   5.415
  130C2M     C2 2453   0.766   2.108   5.289
  130C2M     N1 2454   0.739   2.011   5.183
  130C2M     C3 2455   0.827   1.971   5.084
  130C2M     C4 2456   0.761   1.880   5.006
  130C2M     N2 2457   0.634   1.868   5.059
  130C2M     C5 2458   0.622   1.948   5.166
  130C2M     C6 2459   0.528   1.781   5.007
  130C2M     H1 2460   0.742   1.967   5.451
  130C2M     H2 2461   0.836   2.111   5.494
  130C2M     H3 2462   0.908   1.983   5.394
  130C2M     H4 2463   0.674   2.163   5.310
  130C2M     H5 2464   0.840   2.180   5.253
  130C2M     H6 2465   0.927   2.012   5.082
  130C2M     H7 2466   0.788   1.823   4.919
  130C2M     H8 2467   0.533   1.959   5.228
  130C2M     H9 2468   0.439   1.790   5.069
  130C2M    H10 2469   0.505   1.811   4.905
  130C2M    H11 2470   0.563   1.678   5.009
  131C2M     C1 2471   5.079   6.376   3.218
  131C2M     C2 2472   4.957   6.315   3.152
  131C2M     N1 2473   4.970   6.317   3.006
  131C2M     C3 2474   4.924   6.417   2.922
  131C2M     C4 2475   4.957   6.379   2.794
  131C2M     N2 2476   5.022   6.257   2.805
  131C2M     C5 2477   5.029   6.221   2.933
  131C2M     C6 2478   5.075   6.179   2.693
  131C2M     H1 2479   5.170   6.321   3.191
  131C2M     H2 2480   5.069   6.373   3.327
  131C2M     H3 2481   5.093   6.480   3.187
  131C2M     H4 2482   4.944   6.211   3.184
  131C2M     H5 2483   4.867   6.370   3.180
  131C2M     H6 2484   4.874   6.503   2.963
  131C2M     H7 2485   4.942   6.423   2.697
  131C2M     H8 2486   5.074   6.130   2.972
  131C2M     H9 2487   5.122   6.088   2.730
  131C2M    H10 2488   4.992   6.153   2.626
  131C2M    H11 2489   5.149   6.239   2.640
  132C2M     C1 2490   3.389   4.679   4.595
  132C2M     C2 2491   3.408   4.808   4.517
  132C2M     N1 2492   3.336   4.919   4.580
  132C2M     C3 2493   3.207   4.960   4.550
  132C2M     C4 2494   3.180   5.066   4.631
  132C2M     N2 2495   3.293   5.087   4.708
  132C2M     C5 2496   3.387   4.997   4.676
  132C2M     C6 2497   3.309   5.191   4.809
  132C2M     H1 2498   3.426   4.690   4.698
  132C2M     H2 2499   3.443   4.597   4.548
  132C2M     H3 2500   3.283   4.652   4.600
  132C2M     H4 2501   3.514   4.834   4.512
  132C2M     H5 2502   3.372   4.796   4.414
  132C2M     H6 2503   3.151   4.908   4.474
  132C2M     H7 2504   3.095   5.130   4.644
  132C2M     H8 2505   3.486   4.989   4.720
  132C2M     H9 2506   3.408   5.184   4.856
  132C2M    H10 2507   3.298   5.289   4.762
  132C2M    H11 2508   3.232   5.178   4.886
  133C2M     C1 2509   1.793   0.536   3.585
  133C2M     C2 2510   1.873   0.447   3.491
  133C2M     N1 2511   1.915   0.520   3.372
  133C2M     C3 2512   1.845   0.527   3.252
  133C2M     C4 2513   1.919   0.605   3.168
  133C2M     N2 2514   2.032   0.645   3.238
  133C2M     C5 2515   2.027   0.592   3.362
  133C2M     C6 2516   2.139   0.729   3.187
  133C2M     H1 2517   1.853   0.623   3.616
  133C2M     H2 2518   1.763   0.481   3.674
  133C2M     H3 2519   1.703   0.574   3.536
  133C2M     H4 2520   1.963   0.410   3.542
  133C2M     H5 2521   1.813   0.361   3.461
  133C2M     H6 2522   1.752   0.475   3.242
  133C2M     H7 2523   1.907   0.638   3.066
  133C2M     H8 2524   2.102   0.606   3.440
  133C2M     H9 2525   2.214   0.745   3.265
  133C2M    H10 2526   2.185   0.681   3.101
  133C2M    H11 2527   2.097   0.826   3.158
  134C2M     C1 2528   3.529   0.283   4.199
  134C2M     C2 2529   3.653   0.370   4.202
  134C2M     N1 2530   3.775   0.290   4.198
  134C2M     C3 2531   3.846   0.244   4.309
  134C2M     C4 2532   3.952   0.173   4.260
  134C2M     N2 2533   3.943   0.177   4.122
  134C2M     C5 2534   3.836   0.248   4.086
  134C2M     C6 2535   4.037   0.114   4.029
  134C2M     H1 2536   3.527   0.221   4.108
  134C2M     H2 2537   3.439   0.344   4.201
  134C2M     H3 2538   3.527   0.215   4.285
  134C2M     H4 2539   3.654   0.438   4.116
  134C2M     H5 2540   3.654   0.432   4.292
  134C2M     H6 2541   3.811   0.269   4.408
  134C2M     H7 2542   4.033   0.120   4.307
  134C2M     H8 2543   3.803   0.268   3.985
  134C2M     H9 2544   4.005   0.132   3.927
  134C2M    H10 2545   4.136   0.157   4.045
  134C2M    H11 2546   4.039   0.006   4.048
  135C2M     C1 2547   5.703   2.063   2.242
  135C2M     C2 2548   5.708   1.949   2.341
  135C2M     N1 2549   5.692   1.820   2.274
  135C2M     C3 2550   5.572   1.752   2.254
  135C2M     C4 2551   5.603   1.637   2.187
  135C2M     N2 2552   5.740   1.637   2.169
  135C2M     C5 2553   5.792   1.748   2.221
  135C2M     C6 2554   5.816   1.532   2.102
  135C2M     H1 2555   5.782   2.053   2.167
  135C2M     H2 2556   5.715   2.159   2.293
  135C2M     H3 2557   5.607   2.065   2.189
  135C2M     H4 2558   5.803   1.948   2.394
  135C2M     H5 2559   5.628   1.959   2.416
  135C2M     H6 2560   5.480   1.796   2.290
  135C2M     H7 2561   5.544   1.554   2.151
  135C2M     H8 2562   5.897   1.776   2.222
  135C2M     H9 2563   5.922   1.559   2.100
  135C2M    H10 2564   5.803   1.438   2.156
  135C2M    H11 2565   5.780   1.521   1.999
  136C2M     C1 2566   4.355   2.816   3.720
  136C2M     C2 2567   4.208   2.851   3.731
  136C2M     N1 2568   4.183   2.942   3.843
  136C2M     C3 2569   4.150   2.905   3.972
  136C2M     C4 2570   4.137   3.021   4.044
  136C2M     N2 2571   4.163   3.125   3.957
  136C2M     C5 2572   4.191   3.076   3.835
  136C2M     C6 2573   4.160   3.267   3.991
  136C2M     H1 2574   4.415   2.906   3.704
  136C2M     H2 2575   4.371   2.748   3.635
  136C2M     H3 2576   4.390   2.767   3.811
  136C2M     H4 2577   4.173   2.900   3.639
  136C2M     H5 2578   4.147   2.761   3.746
  136C2M     H6 2579   4.139   2.801   3.997
  136C2M     H7 2580   4.112   3.043   4.146
  136C2M     H8 2581   4.216   3.134   3.747
  136C2M     H9 2582   4.186   3.327   3.903
  136C2M    H10 2583   4.060   3.294   4.025
  136C2M    H11 2584   4.233   3.286   4.070
  137C2M     C1 2585   3.125   3.224   1.328
  137C2M     C2 2586   3.200   3.187   1.201
  137C2M     N1 2587   3.337   3.145   1.231
  137C2M     C3 2588   3.449   3.227   1.233
  137C2M     C4 2589   3.556   3.148   1.265
  137C2M     N2 2590   3.506   3.020   1.283
  137C2M     C5 2591   3.374   3.020   1.262
  137C2M     C6 2592   3.585   2.903   1.318
  137C2M     H1 2593   3.121   3.139   1.396
  137C2M     H2 2594   3.023   3.254   1.304
  137C2M     H3 2595   3.175   3.306   1.380
  137C2M     H4 2596   3.150   3.104   1.149
  137C2M     H5 2597   3.204   3.272   1.132
  137C2M     H6 2598   3.438   3.332   1.211
  137C2M     H7 2599   3.661   3.167   1.279
  137C2M     H8 2600   3.308   2.934   1.268
  137C2M     H9 2601   3.520   2.815   1.326
  137C2M    H10 2602   3.660   2.885   1.241
  137C2M    H11 2603   3.634   2.921   1.414
  138C2M     C1 2604   5.431   1.668   1.306
  138C2M     C2 2605   5.335   1.754   1.225
  138C2M     N1 2606   5.318   1.886   1.286
  138C2M     C3 2607   5.218   1.921   1.377
  138C2M     C4 2608   5.239   2.052   1.408
  138C2M     N2 2609   5.350   2.094   1.336
  138C2M     C5 2610   5.396   1.992   1.263
  138C2M     C6 2611   5.407   2.228   1.339
  138C2M     H1 2612   5.529   1.716   1.314
  138C2M     H2 2613   5.444   1.570   1.260
  138C2M     H3 2614   5.393   1.653   1.408
  138C2M     H4 2615   5.374   1.768   1.124
  138C2M     H5 2616   5.238   1.705   1.217
  138C2M     H6 2617   5.146   1.847   1.407
  138C2M     H7 2618   5.189   2.122   1.472
  138C2M     H8 2619   5.482   1.994   1.196
  138C2M     H9 2620   5.495   2.232   1.273
  138C2M    H10 2621   5.333   2.300   1.304
  138C2M    H11 2622   5.438   2.252   1.441
  139C2M     C1 2623   4.306   5.395   6.549
  139C2M     C2 2624   4.306   5.394   6.397
  139C2M     N1 2625   4.349   5.264   6.345
  139C2M     C3 2626   4.479   5.228   6.312
  139C2M     C4 2627   4.475   5.099   6.268
  139C2M     N2 2628   4.342   5.059   6.276
  139C2M     C5 2629   4.268   5.160   6.323
  139C2M     C6 2630   4.291   4.927   6.239
  139C2M     H1 2631   4.239   5.318   6.588
  139C2M     H2 2632   4.273   5.492   6.586
  139C2M     H3 2633   4.406   5.375   6.588
  139C2M     H4 2634   4.205   5.414   6.359
  139C2M     H5 2635   4.373   5.471   6.358
  139C2M     H6 2636   4.558   5.301   6.324
  139C2M     H7 2637   4.549   5.030   6.232
  139C2M     H8 2638   4.161   5.158   6.340
  139C2M     H9 2639   4.184   4.923   6.257
  139C2M    H10 2640   4.312   4.909   6.133
  139C2M    H11 2641   4.341   4.851   6.300
  140C2M     C1 2642   0.831   4.316   2.928
  140C2M     C2 2643   0.868   4.436   3.013
  140C2M     N1 2644   1.007   4.428   3.059
  140C2M     C3 2645   1.050   4.372   3.178
  140C2M     C4 2646   1.186   4.386   3.180
  140C2M     N2 2647   1.222   4.449   3.062
  140C2M     C5 2648   1.112   4.474   2.990
  140C2M     C6 2649   1.358   4.484   3.022
  140C2M     H1 2650   0.896   4.310   2.840
  140C2M     H2 2651   0.727   4.324   2.894
  140C2M     H3 2652   0.842   4.223   2.984
  140C2M     H4 2653   0.856   4.529   2.956
  140C2M     H5 2654   0.802   4.442   3.101
  140C2M     H6 2655   0.978   4.330   3.246
  140C2M     H7 2656   1.263   4.358   3.251
  140C2M     H8 2657   1.109   4.523   2.893
  140C2M     H9 2658   1.357   4.532   2.924
  140C2M    H10 2659   1.400   4.553   3.096
  140C2M    H11 2660   1.418   4.393   3.017
  141C2M     C1 2661   6.157   5.788   1.610
  141C2M     C2 2662   6.230   5.748   1.737
  141C2M     N1 2663   6.187   5.616   1.783
  141C2M     C3 2664   6.086   5.591   1.875
  141C2M     C4 2665   6.079   5.455   1.889
  141C2M     N2 2666   6.176   5.401   1.807
  141C2M     C5 2667   6.241   5.500   1.743
  141C2M     C6 2668   6.204   5.259   1.790
  141C2M     H1 2669   6.175   5.716   1.530
  141C2M     H2 2670   6.190   5.886   1.576
  141C2M     H3 2671   6.049   5.792   1.628
  141C2M     H4 2672   6.338   5.744   1.719
  141C2M     H5 2673   6.212   5.821   1.816
  141C2M     H6 2674   6.032   5.673   1.917
  141C2M     H7 2675   6.017   5.389   1.948
  141C2M     H8 2676   6.322   5.488   1.672
  141C2M     H9 2677   6.285   5.245   1.718
  141C2M    H10 2678   6.235   5.217   1.887
  141C2M    H11 2679   6.114   5.208   1.755
  142C2M     C1 2680   2.230   3.730   1.190
  142C2M     C2 2681   2.285   3.656   1.309
  142C2M     N1 2682   2.386   3.735   1.379
  142C2M     C3 2683   2.523   3.732   1.356
  142C2M     C4 2684   2.580   3.821   1.442
  142C2M     N2 2685   2.477   3.877   1.516
  142C2M     C5 2686   2.360   3.824   1.476
  142C2M     C6 2687   2.491   3.978   1.620
  142C2M     H1 2688   2.184   3.825   1.221
  142C2M     H2 2689   2.154   3.670   1.139
  142C2M     H3 2690   2.309   3.754   1.118
  142C2M     H4 2691   2.205   3.632   1.380
  142C2M     H5 2692   2.331   3.561   1.278
  142C2M     H6 2693   2.562   3.666   1.281
  142C2M     H7 2694   2.681   3.853   1.461
  142C2M     H8 2695   2.262   3.848   1.515
  142C2M     H9 2696   2.393   4.005   1.660
  142C2M    H10 2697   2.553   3.938   1.700
  142C2M    H11 2698   2.538   4.067   1.577
  143C2M     C1 2699   5.593   2.469   4.639
  143C2M     C2 2700   5.513   2.521   4.521
  143C2M     N1 2701   5.424   2.417   4.468
  143C2M     C3 2702   5.453   2.328   4.366
  143C2M     C4 2703   5.343   2.249   4.349
  143C2M     N2 2704   5.249   2.292   4.442
  143C2M     C5 2705   5.300   2.394   4.513
  143C2M     C6 2706   5.116   2.236   4.459
  143C2M     H1 2707   5.527   2.437   4.720
  143C2M     H2 2708   5.659   2.547   4.678
  143C2M     H3 2709   5.655   2.383   4.610
  143C2M     H4 2710   5.452   2.606   4.551
  143C2M     H5 2711   5.580   2.553   4.441
  143C2M     H6 2712   5.550   2.332   4.318
  143C2M     H7 2713   5.319   2.168   4.283
  143C2M     H8 2714   5.249   2.448   4.593
  143C2M     H9 2715   5.064   2.289   4.540
  143C2M    H10 2716   5.059   2.248   4.366
  143C2M    H11 2717   5.124   2.130   4.485
  144C2M     C1 2718   2.960   3.163   3.865
  144C2M     C2 2719   2.943   3.206   4.009
  144C2M     N1 2720   2.852   3.116   4.081
  144C2M     C3 2721   2.715   3.134   4.095
  144C2M     C4 2722   2.669   3.027   4.168
  144C2M     N2 2723   2.779   2.948   4.196
  144C2M     C5 2724   2.889   3.003   4.142
  144C2M     C6 2725   2.777   2.823   4.272
  144C2M     H1 2726   3.000   3.062   3.859
  144C2M     H2 2727   3.029   3.231   3.813
  144C2M     H3 2728   2.864   3.165   3.812
  144C2M     H4 2729   3.040   3.204   4.061
  144C2M     H5 2730   2.904   3.308   4.015
  144C2M     H6 2731   2.668   3.220   4.051
  144C2M     H7 2732   2.572   2.998   4.204
  144C2M     H8 2733   2.990   2.963   4.148
  144C2M     H9 2734   2.877   2.781   4.277
  144C2M    H10 2735   2.740   2.844   4.373
  144C2M    H11 2736   2.710   2.752   4.222
  145C2M     C1 2737   2.973   5.326   0.924
  145C2M     C2 2738   2.995   5.444   1.017
  145C2M     N1 2739   2.924   5.425   1.144
  145C2M     C3 2740   2.796   5.469   1.173
  145C2M     C4 2741   2.770   5.430   1.302
  145C2M     N2 2742   2.883   5.364   1.347
  145C2M     C5 2743   2.975   5.362   1.250
  145C2M     C6 2744   2.899   5.305   1.480
  145C2M     H1 2745   3.009   5.233   0.970
  145C2M     H2 2746   3.026   5.341   0.830
  145C2M     H3 2747   2.867   5.313   0.902
  145C2M     H4 2748   3.101   5.457   1.038
  145C2M     H5 2749   2.959   5.536   0.970
  145C2M     H6 2750   2.740   5.522   1.098
  145C2M     H7 2751   2.685   5.441   1.367
  145C2M     H8 2752   3.074   5.317   1.257
  145C2M     H9 2753   2.998   5.258   1.488
  145C2M    H10 2754   2.891   5.384   1.555
  145C2M    H11 2755   2.822   5.230   1.495
  146C2M     C1 2756   6.358   1.442   3.992
  146C2M     C2 2757   6.235   1.527   4.017
  146C2M     N1 2758   6.155   1.475   4.127
  146C2M     C3 2759   6.049   1.386   4.116
  146C2M     C4 2760   6.003   1.363   4.242
  146C2M     N2 2761   6.082   1.438   4.328
  146C2M     C5 2762   6.174   1.505   4.256
  146C2M     C6 2763   6.069   1.444   4.473
  146C2M     H1 2764   6.421   1.437   4.082
  146C2M     H2 2765   6.418   1.482   3.910
  146C2M     H3 2766   6.329   1.339   3.967
  146C2M     H4 2767   6.265   1.630   4.042
  146C2M     H5 2768   6.173   1.532   3.927
  146C2M     H6 2769   6.020   1.351   4.018
  146C2M     H7 2770   5.924   1.303   4.283
  146C2M     H8 2771   6.250   1.572   4.296
  146C2M     H9 2772   6.145   1.510   4.514
  146C2M    H10 2773   5.970   1.483   4.498
  146C2M    H11 2774   6.081   1.344   4.514
  147C2M     C1 2775   0.939   5.277   1.434
  147C2M     C2 2776   0.979   5.199   1.310
  147C2M     N1 2777   1.033   5.067   1.346
  147C2M     C3 2778   1.166   5.037   1.367
  147C2M     C4 2779   1.172   4.904   1.398
  147C2M     N2 2780   1.041   4.857   1.395
  147C2M     C5 2781   0.958   4.957   1.363
  147C2M     C6 2782   1.000   4.720   1.422
  147C2M     H1 2783   0.863   5.223   1.491
  147C2M     H2 2784   0.899   5.375   1.406
  147C2M     H3 2785   1.025   5.293   1.500
  147C2M     H4 2786   0.893   5.184   1.245
  147C2M     H5 2787   1.055   5.254   1.254
  147C2M     H6 2788   1.241   5.114   1.358
  147C2M     H7 2789   1.251   4.836   1.422
  147C2M     H8 2790   0.851   4.951   1.353
  147C2M     H9 2791   0.891   4.711   1.413
  147C2M    H10 2792   1.047   4.653   1.349
  147C2M    H11 2793   1.030   4.692   1.523
  148C2M     C1 2794   1.986   1.186   6.236
  148C2M     C2 2795   1.976   1.149   6.089
  148C2M     N1 2796   1.966   1.003   6.073
  148C2M     C3 2797   2.072   0.916   6.052
  148C2M     C4 2798   2.019   0.791   6.042
  148C2M     N2 2799   1.882   0.805   6.056
  148C2M     C5 2800   1.851   0.934   6.075
  148C2M     C6 2801   1.785   0.696   6.052
  148C2M     H1 2802   1.899   1.151   6.292
  148C2M     H2 2803   1.993   1.295   6.247
  148C2M     H3 2804   2.075   1.141   6.281
  148C2M     H4 2805   1.887   1.194   6.045
  148C2M     H5 2806   2.063   1.185   6.034
  148C2M     H6 2807   2.172   0.956   6.047
  148C2M     H7 2808   2.061   0.693   6.026
  148C2M     H8 2809   1.752   0.975   6.089
  148C2M     H9 2810   1.684   0.735   6.068
  148C2M    H10 2811   1.790   0.647   5.955
  148C2M    H11 2812   1.808   0.624   6.131
  149C2M     C1 2813   5.843   3.456   6.287
  149C2M     C2 2814   5.834   3.601   6.332
  149C2M     N1 2815   5.839   3.692   6.218
  149C2M     C3 2816   5.953   3.751   6.166
  149C2M     C4 2817   5.913   3.829   6.061
  149C2M     N2 2818   5.775   3.816   6.052
  149C2M     C5 2819   5.732   3.733   6.148
  149C2M     C6 2820   5.689   3.881   5.954
  149C2M     H1 2821   5.760   3.432   6.219
  149C2M     H2 2822   5.839   3.389   6.373
  149C2M     H3 2823   5.936   3.438   6.233
  149C2M     H4 2824   5.741   3.618   6.386
  149C2M     H5 2825   5.917   3.624   6.400
  149C2M     H6 2826   6.049   3.730   6.210
  149C2M     H7 2827   5.964   3.893   5.991
  149C2M     H8 2828   5.629   3.703   6.166
  149C2M     H9 2829   5.585   3.852   5.970
  149C2M    H10 2830   5.699   3.989   5.966
  149C2M    H11 2831   5.721   3.851   5.854
  150C2M     C1 2832   0.238   3.058   4.042
  150C2M     C2 2833   0.322   3.103   3.924
  150C2M     N1 2834   0.448   3.163   3.970
  150C2M     C3 2835   0.470   3.298   3.994
  150C2M     C4 2836   0.600   3.310   4.034
  150C2M     N2 2837   0.654   3.182   4.034
  150C2M     C5 2838   0.561   3.094   3.994
  150C2M     C6 2839   0.791   3.148   4.070
  150C2M     H1 2840   0.292   2.984   4.102
  150C2M     H2 2841   0.145   3.013   4.007
  150C2M     H3 2842   0.213   3.142   4.107
  150C2M     H4 2843   0.346   3.019   3.859
  150C2M     H5 2844   0.268   3.177   3.864
  150C2M     H6 2845   0.390   3.368   3.980
  150C2M     H7 2846   0.662   3.393   4.064
  150C2M     H8 2847   0.574   2.987   3.984
  150C2M     H9 2848   0.806   3.040   4.061
  150C2M    H10 2849   0.860   3.199   4.002
  150C2M    H11 2850   0.810   3.178   4.173
  151C2M     C1 2851   4.465   5.290   1.472
  151C2M     C2 2852   4.571   5.333   1.572
  151C2M     N1 2853   4.693   5.377   1.504
  151C2M     C3 2854   4.803   5.298   1.473
  151C2M     C4 2855   4.893   5.378   1.411
  151C2M     N2 2856   4.837   5.505   1.405
  151C2M     C5 2857   4.716   5.502   1.462
  151C2M     C6 2858   4.899   5.623   1.346
  151C2M     H1 2859   4.440   5.373   1.405
  151C2M     H2 2860   4.374   5.258   1.523
  151C2M     H3 2861   4.501   5.207   1.410
  151C2M     H4 2862   4.534   5.415   1.633
  151C2M     H5 2863   4.596   5.250   1.639
  151C2M     H6 2864   4.802   5.193   1.500
  151C2M     H7 2865   4.992   5.363   1.369
  151C2M     H8 2866   4.648   5.586   1.472
  151C2M     H9 2867   4.832   5.709   1.355
  151C2M    H10 2868   4.992   5.645   1.400
  151C2M    H11 2869   4.921   5.604   1.241
  152C2M     C1 2870   4.559   4.310   2.512
  152C2M     C2 2871   4.483   4.428   2.454
  152C2M     N1 2872   4.443   4.522   2.558
  152C2M     C3 2873   4.322   4.522   2.626
  152C2M     C4 2874   4.326   4.627   2.714
  152C2M     N2 2875   4.449   4.688   2.698
  152C2M     C5 2876   4.519   4.623   2.603
  152C2M     C6 2877   4.497   4.804   2.772
  152C2M     H1 2878   4.649   4.344   2.565
  152C2M     H2 2879   4.589   4.241   2.433
  152C2M     H3 2880   4.496   4.256   2.584
  152C2M     H4 2881   4.546   4.482   2.382
  152C2M     H5 2882   4.394   4.394   2.401
  152C2M     H6 2883   4.248   4.447   2.602
  152C2M     H7 2884   4.257   4.666   2.787
  152C2M     H8 2885   4.619   4.648   2.569
  152C2M     H9 2886   4.598   4.829   2.740
  152C2M    H10 2887   4.430   4.888   2.754
  152C2M    H11 2888   4.498   4.780   2.879
  153C2M     C1 2889   0.944   0.688   5.562
  153C2M     C2 2890   0.989   0.650   5.423
  153C2M     N1 2891   0.876   0.646   5.329
  153C2M     C3 2892   0.799   0.535   5.298
  153C2M     C4 2893   0.705   0.577   5.208
  153C2M     N2 2894   0.727   0.712   5.186
  153C2M     C5 2895   0.831   0.752   5.261
  153C2M     C6 2896   0.650   0.797   5.097
  153C2M     H1 2897   0.896   0.787   5.562
  153C2M     H2 2898   1.029   0.690   5.631
  153C2M     H3 2899   0.870   0.616   5.601
  153C2M     H4 2900   1.062   0.722   5.385
  153C2M     H5 2901   1.036   0.551   5.423
  153C2M     H6 2902   0.821   0.441   5.345
  153C2M     H7 2903   0.625   0.527   5.156
  153C2M     H8 2904   0.871   0.853   5.265
  153C2M     H9 2905   0.688   0.899   5.101
  153C2M    H10 2906   0.658   0.759   4.995
  153C2M    H11 2907   0.545   0.797   5.129
  154C2M     C1 2908   6.736   0.935   0.156
  154C2M     C2 2909   6.719   1.047   0.256
  154C2M     N1 2910   6.588   1.111   0.241
  154C2M     C3 2911   6.560   1.222   0.162
  154C2M     C4 2912   6.426   1.248   0.177
  154C2M     N2 2913   6.376   1.152   0.264
  154C2M     C5 2914   6.475   1.070   0.302
  154C2M     C6 2915   6.238   1.142   0.308
  154C2M     H1 2916   6.659   0.858   0.169
  154C2M     H2 2917   6.834   0.887   0.169
  154C2M     H3 2918   6.729   0.972   0.053
  154C2M     H4 2919   6.726   1.009   0.358
  154C2M     H5 2920   6.796   1.123   0.243
  154C2M     H6 2921   6.639   1.268   0.106
  154C2M     H7 2922   6.360   1.322   0.137
  154C2M     H8 2923   6.467   0.986   0.369
  154C2M     H9 2924   6.227   1.056   0.376
  154C2M    H10 2925   6.210   1.233   0.361
  154C2M    H11 2926   6.173   1.128   0.221
  155C2M     C1 2927   3.925   3.565   3.791
  155C2M     C2 2928   3.892   3.471   3.677
  155C2M     N1 2929   3.819   3.353   3.724
  155C2M     C3 2930   3.875   3.232   3.763
  155C2M     C4 2931   3.772   3.151   3.800
  155C2M     N2 2932   3.656   3.224   3.783
  155C2M     C5 2933   3.686   3.346   3.737
  155C2M     C6 2934   3.521   3.176   3.811
  155C2M     H1 2935   3.833   3.599   3.841
  155C2M     H2 2936   3.979   3.653   3.754
  155C2M     H3 2937   3.987   3.515   3.866
  155C2M     H4 2938   3.831   3.522   3.602
  155C2M     H5 2939   3.984   3.438   3.627
  155C2M     H6 2940   3.982   3.220   3.759
  155C2M     H7 2941   3.766   3.050   3.837
  155C2M     H8 2942   3.615   3.426   3.714
  155C2M     H9 2943   3.448   3.256   3.789
  155C2M    H10 2944   3.500   3.090   3.747
  155C2M    H11 2945   3.514   3.148   3.916
  156C2M     C1 2946   3.205   4.566   6.388
  156C2M     C2 2947   3.298   4.500   6.288
  156C2M     N1 2948   3.224   4.418   6.192
  156C2M     C3 2949   3.196   4.283   6.204
  156C2M     C4 2950   3.125   4.247   6.093
  156C2M     N2 2951   3.111   4.362   6.016
  156C2M     C5 2952   3.172   4.464   6.078
  156C2M     C6 2953   3.042   4.370   5.888
  156C2M     H1 2954   3.133   4.630   6.337
  156C2M     H2 2955   3.261   4.627   6.459
  156C2M     H3 2956   3.149   4.491   6.444
  156C2M     H4 2957   3.354   4.576   6.233
  156C2M     H5 2958   3.371   4.436   6.340
  156C2M     H6 2959   3.231   4.230   6.291
  156C2M     H7 2960   3.083   4.155   6.059
  156C2M     H8 2961   3.177   4.567   6.041
  156C2M     H9 2962   3.046   4.473   5.851
  156C2M    H10 2963   3.091   4.303   5.817
  156C2M    H11 2964   2.938   4.340   5.902
  157C2M     C1 2965   5.125   2.280   2.710
  157C2M     C2 2966   5.074   2.358   2.591
  157C2M     N1 2967   4.932   2.334   2.568
  157C2M     C3 2968   4.878   2.237   2.484
  157C2M     C4 2969   4.742   2.249   2.492
  157C2M     N2 2970   4.716   2.352   2.581
  157C2M     C5 2971   4.832   2.402   2.626
  157C2M     C6 2972   4.584   2.399   2.620
  157C2M     H1 2973   5.070   2.307   2.801
  157C2M     H2 2974   5.231   2.299   2.727
  157C2M     H3 2975   5.111   2.172   2.695
  157C2M     H4 2976   5.088   2.466   2.607
  157C2M     H5 2977   5.130   2.331   2.500
  157C2M     H6 2978   4.944   2.172   2.429
  157C2M     H7 2979   4.660   2.197   2.447
  157C2M     H8 2980   4.844   2.484   2.696
  157C2M     H9 2981   4.594   2.481   2.692
  157C2M    H10 2982   4.531   2.435   2.531
  157C2M    H11 2983   4.529   2.317   2.666
  158C2M     C1 2984   4.990   1.473   4.408
  158C2M     C2 2985   5.011   1.497   4.259
  158C2M     N1 2986   5.101   1.611   4.237
  158C2M     C3 2987   5.062   1.743   4.218
  158C2M     C4 2988   5.177   1.815   4.201
  158C2M     N2 2989   5.282   1.726   4.209
  158C2M     C5 2990   5.234   1.602   4.231
  158C2M     C6 2991   5.423   1.759   4.196
  158C2M     H1 2992   5.085   1.452   4.457
  158C2M     H2 2993   4.923   1.388   4.423
  158C2M     H3 2994   4.946   1.561   4.456
  158C2M     H4 2995   5.055   1.409   4.212
  158C2M     H5 2996   4.915   1.518   4.210
  158C2M     H6 2997   4.958   1.768   4.220
  158C2M     H7 2998   5.197   1.919   4.183
  158C2M     H8 2999   5.293   1.512   4.241
  158C2M     H9 3000   5.484   1.669   4.207
  158C2M    H10 3001   5.441   1.802   4.097
  158C2M    H11 3002   5.450   1.832   4.273
  159C2M     C1 3003   3.649   5.019   3.936
  159C2M     C2 3004   3.728   4.997   3.809
  159C2M     N1 3005   3.872   4.990   3.836
  159C2M     C3 3006   3.961   5.097   3.832
  159C2M     C4 3007   4.084   5.047   3.865
  159C2M     N2 3008   4.067   4.912   3.888
  159C2M     C5 3009   3.938   4.879   3.870
  159C2M     C6 3010   4.173   4.818   3.925
  159C2M     H1 3011   3.667   4.939   4.008
  159C2M     H2 3012   3.542   5.023   3.914
  159C2M     H3 3013   3.678   5.113   3.983
  159C2M     H4 3014   3.699   4.902   3.761
  159C2M     H5 3015   3.710   5.077   3.737
  159C2M     H6 3016   3.924   5.195   3.807
  159C2M     H7 3017   4.181   5.091   3.875
  159C2M     H8 3018   3.895   4.780   3.881
  159C2M     H9 3019   4.131   4.718   3.938
  159C2M    H10 3020   4.248   4.817   3.847
  159C2M    H11 3021   4.217   4.851   4.020
  160C2M     C1 3022   0.432   3.854   1.912
  160C2M     C2 3023   0.406   3.742   2.011
  160C2M     N1 3024   0.465   3.616   1.965
  160C2M     C3 3025   0.401   3.518   1.890
  160C2M     C4 3026   0.492   3.419   1.870
  160C2M     N2 3027   0.609   3.458   1.932
  160C2M     C5 3028   0.592   3.578   1.989
  160C2M     C6 3029   0.733   3.381   1.935
  160C2M     H1 3030   0.539   3.869   1.898
  160C2M     H2 3031   0.388   3.947   1.948
  160C2M     H3 3032   0.388   3.830   1.815
  160C2M     H4 3033   0.450   3.767   2.109
  160C2M     H5 3034   0.299   3.727   2.026
  160C2M     H6 3035   0.298   3.533   1.862
  160C2M     H7 3036   0.489   3.324   1.818
  160C2M     H8 3037   0.666   3.634   2.045
  160C2M     H9 3038   0.810   3.437   1.990
  160C2M    H10 3039   0.715   3.286   1.985
  160C2M    H11 3040   0.768   3.365   1.833
  161C2M     C1 3041   3.545   6.475   3.616
  161C2M     C2 3042   3.548   6.484   3.767
  161C2M     N1 3043   3.467   6.596   3.815
  161C2M     C3 3044   3.512   6.724   3.841
  161C2M     C4 3045   3.404   6.796   3.884
  161C2M     N2 3046   3.296   6.709   3.884
  161C2M     C5 3047   3.336   6.588   3.842
  161C2M     C6 3048   3.160   6.743   3.923
  161C2M     H1 3049   3.442   6.461   3.580
  161C2M     H2 3050   3.605   6.391   3.581
  161C2M     H3 3051   3.583   6.567   3.570
  161C2M     H4 3052   3.510   6.392   3.812
  161C2M     H5 3053   3.651   6.498   3.802
  161C2M     H6 3054   3.616   6.748   3.824
  161C2M     H7 3055   3.390   6.898   3.915
  161C2M     H8 3056   3.273   6.500   3.832
  161C2M     H9 3057   3.095   6.656   3.912
  161C2M    H10 3058   3.160   6.776   4.028
  161C2M    H11 3059   3.123   6.824   3.859
  162C2M     C1 3060   0.840   4.063   2.436
  162C2M     C2 3061   0.980   4.109   2.472
  162C2M     N1 3062   1.044   4.178   2.360
  162C2M     C3 3063   1.124   4.119   2.263
  162C2M     C4 3064   1.162   4.219   2.178
  162C2M     N2 3065   1.104   4.336   2.224
  162C2M     C5 3066   1.032   4.309   2.335
  162C2M     C6 3067   1.117   4.468   2.164
  162C2M     H1 3068   0.777   4.149   2.408
  162C2M     H2 3069   0.793   4.013   2.521
  162C2M     H3 3070   0.842   3.994   2.352
  162C2M     H4 3071   0.977   4.178   2.557
  162C2M     H5 3072   1.042   4.024   2.501
  162C2M     H6 3073   1.144   4.014   2.268
  162C2M     H7 3074   1.223   4.222   2.090
  162C2M     H8 3075   0.975   4.381   2.393
  162C2M     H9 3076   1.060   4.541   2.220
  162C2M    H10 3077   1.223   4.496   2.164
  162C2M    H11 3078   1.080   4.464   2.061
  163C2M     C1 3079   1.904   0.071   5.189
  163C2M     C2 3080   1.871   0.203   5.256
  163C2M     N1 3081   1.828   0.302   5.158
  163C2M     C3 3082   1.909   0.394   5.094
  163C2M     C4 3083   1.828   0.468   5.012
  163C2M     N2 3084   1.699   0.418   5.028
  163C2M     C5 3085   1.701   0.318   5.117
  163C2M     C6 3086   1.580   0.467   4.959
  163C2M     H1 3087   1.817   0.031   5.136
  163C2M     H2 3088   1.936  -0.003   5.263
  163C2M     H3 3089   1.985   0.083   5.116
  163C2M     H4 3090   1.791   0.189   5.330
  163C2M     H5 3091   1.958   0.241   5.310
  163C2M     H6 3092   2.014   0.396   5.116
  163C2M     H7 3093   1.845   0.549   4.943
  163C2M     H8 3094   1.615   0.260   5.150
  163C2M     H9 3095   1.493   0.409   4.990
  163C2M    H10 3096   1.565   0.572   4.984
  163C2M    H11 3097   1.595   0.456   4.851
  164C2M     C1 3098   6.733   4.012   3.624
  164C2M     C2 3099   6.686   3.877   3.573
  164C2M     N1 3100   6.572   3.892   3.483
  164C2M     C3 3101   6.438   3.888   3.519
  164C2M     C4 3102   6.366   3.906   3.404
  164C2M     N2 3103   6.458   3.920   3.301
  164C2M     C5 3104   6.582   3.912   3.350
  164C2M     C6 3105   6.425   3.942   3.161
  164C2M     H1 3106   6.764   4.076   3.541
  164C2M     H2 3107   6.819   4.000   3.691
  164C2M     H3 3108   6.654   4.064   3.678
  164C2M     H4 3109   6.766   3.826   3.519
  164C2M     H5 3110   6.656   3.813   3.657
  164C2M     H6 3111   6.411   3.872   3.622
  164C2M     H7 3112   6.261   3.910   3.382
  164C2M     H8 3113   6.674   3.920   3.294
  164C2M     H9 3114   6.517   3.951   3.102
  164C2M    H10 3115   6.367   3.857   3.124
  164C2M    H11 3116   6.366   4.034   3.151
  165C2M     C1 3117   1.446   5.045   5.517
  165C2M     C2 3118   1.382   4.917   5.467
  165C2M     N1 3119   1.391   4.810   5.567
  165C2M     C3 3120   1.492   4.715   5.576
  165C2M     C4 3121   1.462   4.636   5.683
  165C2M     N2 3122   1.344   4.684   5.736
  165C2M     C5 3123   1.302   4.789   5.665
  165C2M     C6 3124   1.274   4.628   5.852
  165C2M     H1 3125   1.398   5.079   5.609
  165C2M     H2 3126   1.438   5.124   5.442
  165C2M     H3 3127   1.552   5.029   5.539
  165C2M     H4 3128   1.276   4.934   5.445
  165C2M     H5 3129   1.430   4.883   5.375
  165C2M     H6 3130   1.573   4.717   5.505
  165C2M     H7 3131   1.510   4.550   5.728
  165C2M     H8 3132   1.212   4.848   5.683
  165C2M     H9 3133   1.184   4.687   5.872
  165C2M    H10 3134   1.246   4.525   5.831
  165C2M    H11 3135   1.341   4.632   5.939
  166C2M     C1 3136   4.242   0.539   0.571
  166C2M     C2 3137   4.346   0.648   0.554
  166C2M     N1 3138   4.373   0.716   0.680
  166C2M     C3 3139   4.310   0.831   0.726
  166C2M     C4 3140   4.365   0.860   0.848
  166C2M     N2 3141   4.460   0.763   0.873
  166C2M     C5 3142   4.464   0.676   0.770
  166C2M     C6 3143   4.544   0.755   0.992
  166C2M     H1 3144   4.276   0.464   0.644
  166C2M     H2 3145   4.223   0.488   0.476
  166C2M     H3 3146   4.148   0.581   0.607
  166C2M     H4 3147   4.440   0.606   0.517
  166C2M     H5 3148   4.312   0.722   0.480
  166C2M     H6 3149   4.233   0.877   0.666
  166C2M     H7 3150   4.349   0.938   0.920
  166C2M     H8 3151   4.528   0.590   0.762
  166C2M     H9 3152   4.609   0.667   0.986
  166C2M    H10 3153   4.605   0.845   0.999
  166C2M    H11 3154   4.480   0.746   1.080
  167C2M     C1 3155   6.058   1.982   4.563
  167C2M     C2 3156   6.003   2.062   4.448
  167C2M     N1 3157   6.017   2.206   4.472
  167C2M     C3 3158   5.922   2.289   4.530
  167C2M     C4 3159   5.976   2.414   4.533
  167C2M     N2 3160   6.102   2.405   4.477
  167C2M     C5 3161   6.125   2.278   4.440
  167C2M     C6 3162   6.195   2.516   4.459
  167C2M     H1 3163   6.165   2.004   4.579
  167C2M     H2 3164   6.048   1.875   4.544
  167C2M     H3 3165   6.006   2.006   4.656
  167C2M     H4 3166   6.056   2.038   4.355
  167C2M     H5 3167   5.897   2.039   4.432
  167C2M     H6 3168   5.828   2.247   4.562
  167C2M     H7 3169   5.941   2.510   4.569
  167C2M     H8 3170   6.215   2.241   4.393
  167C2M     H9 3171   6.287   2.480   4.413
  167C2M    H10 3172   6.150   2.591   4.395
  167C2M    H11 3173   6.218   2.559   4.557
  168C2M     C1 3174   5.733   1.725   4.371
  168C2M     C2 3175   5.619   1.711   4.470
  168C2M     N1 3176   5.660   1.631   4.586
  168C2M     C3 3177   5.644   1.494   4.600
  168C2M     C4 3178   5.696   1.460   4.721
  168C2M     N2 3179   5.742   1.578   4.779
  168C2M     C5 3180   5.720   1.680   4.695
  168C2M     C6 3181   5.806   1.589   4.910
  168C2M     H1 3182   5.820   1.773   4.417
  168C2M     H2 3183   5.701   1.786   4.285
  168C2M     H3 3184   5.765   1.627   4.334
  168C2M     H4 3185   5.588   1.810   4.507
  168C2M     H5 3186   5.533   1.664   4.423
  168C2M     H6 3187   5.598   1.438   4.520
  168C2M     H7 3188   5.706   1.368   4.775
  168C2M     H8 3189   5.745   1.784   4.713
  168C2M     H9 3190   5.833   1.693   4.929
  168C2M    H10 3191   5.735   1.555   4.986
  168C2M    H11 3192   5.896   1.527   4.911
  169C2M     C1 3193   5.739   2.855   0.219
  169C2M     C2 3194   5.812   2.774   0.113
  169C2M     N1 3195   5.883   2.660   0.172
  169C2M     C3 3196   6.015   2.660   0.214
  169C2M     C4 3197   6.040   2.534   0.262
  169C2M     N2 3198   5.923   2.462   0.248
  169C2M     C5 3199   5.828   2.540   0.193
  169C2M     C6 3200   5.904   2.322   0.286
  169C2M     H1 3201   5.666   2.792   0.271
  169C2M     H2 3202   5.686   2.939   0.173
  169C2M     H3 3203   5.810   2.894   0.293
  169C2M     H4 3204   5.741   2.736   0.038
  169C2M     H5 3205   5.885   2.837   0.060
  169C2M     H6 3206   6.074   2.749   0.205
  169C2M     H7 3207   6.126   2.487   0.306
  169C2M     H8 3208   5.727   2.510   0.169
  169C2M     H9 3209   5.801   2.292   0.265
  169C2M    H10 3210   5.973   2.260   0.230
  169C2M    H11 3211   5.923   2.312   0.394
  170C2M     C1 3212   4.609   4.134   1.429
  170C2M     C2 3213   4.638   4.048   1.308
  170C2M     N1 3214   4.603   3.908   1.333
  170C2M     C3 3215   4.688   3.810   1.381
  170C2M     C4 3216   4.614   3.695   1.390
  170C2M     N2 3217   4.487   3.726   1.346
  170C2M     C5 3218   4.481   3.855   1.312
  170C2M     C6 3219   4.375   3.633   1.338
  170C2M     H1 3220   4.503   4.130   1.455
  170C2M     H2 3221   4.635   4.239   1.409
  170C2M     H3 3222   4.666   4.100   1.516
  170C2M     H4 3223   4.581   4.083   1.222
  170C2M     H5 3224   4.745   4.053   1.282
  170C2M     H6 3225   4.790   3.835   1.404
  170C2M     H7 3226   4.636   3.594   1.421
  170C2M     H8 3227   4.394   3.908   1.275
  170C2M     H9 3228   4.286   3.685   1.302
  170C2M    H10 3229   4.400   3.552   1.269
  170C2M    H11 3230   4.355   3.592   1.438
  171C2M     C1 3231   2.944   2.181   4.024
  171C2M     C2 3232   2.893   2.249   3.898
  171C2M     N1 3233   2.856   2.388   3.924
  171C2M     C3 3234   2.730   2.434   3.960
  171C2M     C4 3235   2.741   2.570   3.974
  171C2M     N2 3236   2.872   2.603   3.947
  171C2M     C5 3237   2.941   2.492   3.917
  171C2M     C6 3238   2.929   2.737   3.950
  171C2M     H1 3239   3.033   2.234   4.062
  171C2M     H2 3240   2.972   2.078   4.004
  171C2M     H3 3241   2.869   2.182   4.103
  171C2M     H4 3242   2.969   2.247   3.820
  171C2M     H5 3243   2.805   2.196   3.860
  171C2M     H6 3244   2.649   2.364   3.971
  171C2M     H7 3245   2.671   2.648   4.001
  171C2M     H8 3246   3.046   2.486   3.891
  171C2M     H9 3247   3.035   2.734   3.925
  171C2M    H10 3248   2.877   2.799   3.877
  171C2M    H11 3249   2.916   2.779   4.050
  172C2M     C1 3250   4.595   6.174   2.685
  172C2M     C2 3251   4.604   6.289   2.587
  172C2M     N1 3252   4.546   6.411   2.644
  172C2M     C3 3253   4.414   6.453   2.630
  172C2M     C4 3254   4.403   6.571   2.698
  172C2M     N2 3255   4.528   6.598   2.752
  172C2M     C5 3256   4.613   6.500   2.718
  172C2M     C6 3257   4.562   6.714   2.833
  172C2M     H1 3258   4.649   6.198   2.778
  172C2M     H2 3259   4.639   6.084   2.642
  172C2M     H3 3260   4.491   6.152   2.711
  172C2M     H4 3261   4.708   6.310   2.561
  172C2M     H5 3262   4.551   6.265   2.494
  172C2M     H6 3263   4.346   6.393   2.572
  172C2M     H7 3264   4.322   6.640   2.715
  172C2M     H8 3265   4.718   6.494   2.746
  172C2M     H9 3266   4.667   6.709   2.863
  172C2M    H10 3267   4.545   6.805   2.775
  172C2M    H11 3268   4.499   6.715   2.923
  173C2M     C1 3269   4.032   4.452   1.804
  173C2M     C2 3270   4.046   4.528   1.674
  173C2M     N1 3271   4.099   4.663   1.697
  173C2M     C3 3272   4.024   4.778   1.716
  173C2M     C4 3273   4.113   4.880   1.734
  173C2M     N2 3274   4.239   4.825   1.724
  173C2M     C5 3275   4.229   4.693   1.702
  173C2M     C6 3276   4.365   4.898   1.736
  173C2M     H1 3277   4.129   4.443   1.855
  173C2M     H2 3278   3.993   4.351   1.786
  173C2M     H3 3279   3.964   4.504   1.873
  173C2M     H4 3280   4.114   4.476   1.606
  173C2M     H5 3281   3.949   4.536   1.624
  173C2M     H6 3282   3.916   4.771   1.716
  173C2M     H7 3283   4.102   4.986   1.752
  173C2M     H8 3284   4.312   4.624   1.690
  173C2M     H9 3285   4.449   4.830   1.726
  173C2M    H10 3286   4.370   4.974   1.658
  173C2M    H11 3287   4.369   4.946   1.835
  174C2M     C1 3288   3.803   2.010   2.085
  174C2M     C2 3289   3.726   2.003   2.215
  174C2M     N1 3290   3.582   1.992   2.191
  174C2M     C3 3291   3.492   2.097   2.183
  174C2M     C4 3292   3.369   2.043   2.159
  174C2M     N2 3293   3.387   1.906   2.154
  174C2M     C5 3294   3.516   1.876   2.173
  174C2M     C6 3295   3.282   1.807   2.130
  174C2M     H1 3296   3.785   1.920   2.024
  174C2M     H2 3297   3.911   2.017   2.104
  174C2M     H3 3298   3.772   2.097   2.026
  174C2M     H4 3299   3.758   1.916   2.274
  174C2M     H5 3300   3.745   2.092   2.275
  174C2M     H6 3301   3.528   2.198   2.195
  174C2M     H7 3302   3.271   2.084   2.146
  174C2M     H8 3303   3.560   1.777   2.174
  174C2M     H9 3304   3.325   1.707   2.130
  174C2M    H10 3305   3.208   1.815   2.210
  174C2M    H11 3306   3.235   1.827   2.034
  175C2M     C1 3307   4.834   3.831   0.738
  175C2M     C2 3308   4.753   3.869   0.616
  175C2M     N1 3309   4.628   3.935   0.654
  175C2M     C3 3310   4.506   3.873   0.674
  175C2M     C4 3311   4.417   3.971   0.708
  175C2M     N2 3312   4.487   4.090   0.709
  175C2M     C5 3313   4.615   4.067   0.676
  175C2M     C6 3314   4.432   4.221   0.740
  175C2M     H1 3315   4.859   3.919   0.798
  175C2M     H2 3316   4.928   3.782   0.708
  175C2M     H3 3317   4.778   3.762   0.802
  175C2M     H4 3318   4.810   3.938   0.552
  175C2M     H5 3319   4.729   3.781   0.556
  175C2M     H6 3320   4.498   3.766   0.661
  175C2M     H7 3321   4.312   3.971   0.733
  175C2M     H8 3322   4.694   4.141   0.668
  175C2M     H9 3323   4.510   4.297   0.734
  175C2M    H10 3324   4.352   4.245   0.668
  175C2M    H11 3325   4.391   4.220   0.841
  176C2M     C1 3326   4.274   4.804   5.373
  176C2M     C2 3327   4.160   4.745   5.291
  176C2M     N1 3328   4.189   4.755   5.147
  176C2M     C3 3329   4.151   4.858   5.063
  176C2M     C4 3330   4.198   4.827   4.939
  176C2M     N2 3331   4.263   4.705   4.950
  176C2M     C5 3332   4.257   4.663   5.077
  176C2M     C6 3333   4.328   4.633   4.841
  176C2M     H1 3334   4.367   4.751   5.353
  176C2M     H2 3335   4.251   4.796   5.480
  176C2M     H3 3336   4.289   4.910   5.348
  176C2M     H4 3337   4.145   4.640   5.316
  176C2M     H5 3338   4.067   4.798   5.311
  176C2M     H6 3339   4.096   4.941   5.103
  176C2M     H7 3340   4.193   4.875   4.843
  176C2M     H8 3341   4.299   4.571   5.116
  176C2M     H9 3342   4.372   4.540   4.879
  176C2M    H10 3343   4.254   4.609   4.765
  176C2M    H11 3344   4.407   4.696   4.799
  177C2M     C1 3345   5.369   3.370   4.413
  177C2M     C2 3346   5.454   3.317   4.527
  177C2M     N1 3347   5.380   3.217   4.605
  177C2M     C3 3348   5.303   3.242   4.718
  177C2M     C4 3349   5.253   3.122   4.758
  177C2M     N2 3350   5.300   3.027   4.669
  177C2M     C5 3351   5.377   3.086   4.577
  177C2M     C6 3352   5.271   2.884   4.674
  177C2M     H1 3353   5.340   3.289   4.345
  177C2M     H2 3354   5.425   3.445   4.355
  177C2M     H3 3355   5.278   3.418   4.450
  177C2M     H4 3356   5.545   3.271   4.489
  177C2M     H5 3357   5.483   3.399   4.594
  177C2M     H6 3358   5.294   3.343   4.754
  177C2M     H7 3359   5.189   3.091   4.839
  177C2M     H8 3360   5.428   3.037   4.494
  177C2M     H9 3361   5.321   2.833   4.591
  177C2M    H10 3362   5.308   2.843   4.769
  177C2M    H11 3363   5.163   2.869   4.667
  178C2M     C1 3364   1.937   0.096   2.798
  178C2M     C2 3365   1.826   0.192   2.762
  178C2M     N1 3366   1.802   0.194   2.618
  178C2M     C3 3367   1.861   0.281   2.527
  178C2M     C4 3368   1.811   0.248   2.404
  178C2M     N2 3369   1.723   0.143   2.423
  178C2M     C5 3370   1.719   0.111   2.553
  178C2M     C6 3371   1.647   0.076   2.319
  178C2M     H1 3372   1.912  -0.006   2.766
  178C2M     H2 3373   1.954   0.094   2.906
  178C2M     H3 3374   2.031   0.124   2.749
  178C2M     H4 3375   1.733   0.164   2.812
  178C2M     H5 3376   1.851   0.294   2.795
  178C2M     H6 3377   1.931   0.355   2.562
  178C2M     H7 3378   1.826   0.287   2.305
  178C2M     H8 3379   1.659   0.033   2.599
  178C2M     H9 3380   1.587  -0.004   2.362
  178C2M    H10 3381   1.581   0.148   2.270
  178C2M    H11 3382   1.716   0.034   2.245
  179C2M     C1 3383   5.703   3.714   4.508
  179C2M     C2 3384   5.680   3.856   4.462
  179C2M     N1 3385   5.538   3.882   4.440
  179C2M     C3 3386   5.470   3.869   4.320
  179C2M     C4 3387   5.340   3.903   4.344
  179C2M     N2 3388   5.331   3.936   4.478
  179C2M     C5 3389   5.452   3.923   4.535
  179C2M     C6 3390   5.211   3.979   4.547
  179C2M     H1 3391   5.649   3.694   4.602
  179C2M     H2 3392   5.810   3.695   4.525
  179C2M     H3 3393   5.667   3.642   4.433
  179C2M     H4 3394   5.716   3.927   4.538
  179C2M     H5 3395   5.734   3.876   4.369
  179C2M     H6 3396   5.524   3.836   4.232
  179C2M     H7 3397   5.252   3.908   4.282
  179C2M     H8 3398   5.476   3.943   4.639
  179C2M     H9 3399   5.233   3.998   4.652
  179C2M    H10 3400   5.174   4.071   4.501
  179C2M    H11 3401   5.135   3.901   4.539
  180C2M     C1 3402   1.474   1.765   2.419
  180C2M     C2 3403   1.491   1.755   2.570
  180C2M     N1 3404   1.421   1.638   2.623
  180C2M     C3 3405   1.291   1.635   2.671
  180C2M     C4 3406   1.266   1.507   2.710
  180C2M     N2 3407   1.381   1.434   2.684
  180C2M     C5 3408   1.474   1.515   2.631
  180C2M     C6 3409   1.399   1.292   2.710
  180C2M     H1 3410   1.514   1.676   2.369
  180C2M     H2 3411   1.527   1.853   2.381
  180C2M     H3 3412   1.368   1.775   2.393
  180C2M     H4 3413   1.597   1.746   2.596
  180C2M     H5 3414   1.452   1.845   2.619
  180C2M     H6 3415   1.233   1.726   2.672
  180C2M     H7 3416   1.181   1.457   2.753
  180C2M     H8 3417   1.574   1.486   2.601
  180C2M     H9 3418   1.500   1.261   2.679
  180C2M    H10 3419   1.387   1.273   2.817
  180C2M    H11 3420   1.325   1.235   2.654
  181C2M     C1 3421   5.021   1.576   2.781
  181C2M     C2 3422   4.992   1.724   2.797
  181C2M     N1 3423   5.053   1.777   2.919
  181C2M     C3 3424   4.993   1.786   3.044
  181C2M     C4 3425   5.085   1.841   3.128
  181C2M     N2 3426   5.199   1.864   3.053
  181C2M     C5 3427   5.178   1.825   2.926
  181C2M     C6 3428   5.323   1.923   3.102
  181C2M     H1 3429   5.129   1.558   2.775
  181C2M     H2 3430   4.975   1.537   2.689
  181C2M     H3 3431   4.983   1.519   2.866
  181C2M     H4 3432   5.030   1.780   2.712
  181C2M     H5 3433   4.884   1.741   2.802
  181C2M     H6 3434   4.892   1.751   3.056
  181C2M     H7 3435   5.085   1.867   3.232
  181C2M     H8 3436   5.249   1.831   2.845
  181C2M     H9 3437   5.397   1.928   3.022
  181C2M    H10 3438   5.303   2.023   3.140
  181C2M    H11 3439   5.363   1.860   3.183
  182C2M     C1 3440   3.747   4.021   0.306
  182C2M     C2 3441   3.651   4.000   0.422
  182C2M     N1 3442   3.588   3.868   0.415
  182C2M     C3 3443   3.468   3.838   0.353
  182C2M     C4 3444   3.447   3.704   0.371
  182C2M     N2 3445   3.555   3.655   0.442
  182C2M     C5 3446   3.640   3.756   0.468
  182C2M     C6 3447   3.575   3.517   0.483
  182C2M     H1 3448   3.826   3.945   0.307
  182C2M     H2 3449   3.794   4.120   0.312
  182C2M     H3 3450   3.695   4.013   0.210
  182C2M     H4 3451   3.704   4.008   0.517
  182C2M     H5 3452   3.573   4.076   0.421
  182C2M     H6 3453   3.412   3.916   0.305
  182C2M     H7 3454   3.369   3.636   0.341
  182C2M     H8 3455   3.734   3.748   0.522
  182C2M     H9 3456   3.670   3.507   0.536
  182C2M    H10 3457   3.493   3.487   0.548
  182C2M    H11 3458   3.577   3.453   0.394
  183C2M     C1 3459   4.560   1.570   5.937
  183C2M     C2 3460   4.512   1.609   6.076
  183C2M     N1 3461   4.368   1.585   6.090
  183C2M     C3 3462   4.268   1.678   6.066
  183C2M     C4 3463   4.149   1.614   6.091
  183C2M     N2 3464   4.180   1.485   6.129
  183C2M     C5 3465   4.313   1.469   6.128
  183C2M     C6 3466   4.084   1.381   6.165
  183C2M     H1 3467   4.541   1.465   5.917
  183C2M     H2 3468   4.668   1.588   5.928
  183C2M     H3 3469   4.509   1.629   5.860
  183C2M     H4 3470   4.564   1.550   6.152
  183C2M     H5 3471   4.532   1.714   6.096
  183C2M     H6 3472   4.294   1.777   6.034
  183C2M     H7 3473   4.046   1.645   6.086
  183C2M     H8 3474   4.367   1.378   6.153
  183C2M     H9 3475   4.136   1.289   6.190
  183C2M    H10 3476   4.027   1.415   6.252
  183C2M    H11 3477   4.017   1.364   6.081
  184C2M     C1 3478   2.681   2.232   4.539
  184C2M     C2 3479   2.723   2.184   4.402
  184C2M     N1 3480   2.757   2.042   4.404
  184C2M     C3 3481   2.883   1.988   4.423
  184C2M     C4 3482   2.870   1.852   4.418
  184C2M     N2 3483   2.736   1.826   4.395
  184C2M     C5 3484   2.668   1.942   4.387
  184C2M     C6 3485   2.676   1.694   4.382
  184C2M     H1 3486   2.594   2.177   4.576
  184C2M     H2 3487   2.656   2.339   4.537
  184C2M     H3 3488   2.762   2.218   4.612
  184C2M     H4 3489   2.641   2.199   4.330
  184C2M     H5 3490   2.809   2.240   4.366
  184C2M     H6 3491   2.967   2.054   4.439
  184C2M     H7 3492   2.939   1.770   4.427
  184C2M     H8 3493   2.562   1.953   4.369
  184C2M     H9 3494   2.568   1.703   4.365
  184C2M    H10 3495   2.721   1.643   4.297
  184C2M    H11 3496   2.694   1.637   4.473
  185C2M     C1 3497   2.045   5.888   3.948
  185C2M     C2 3498   2.091   6.032   3.936
  185C2M     N1 3499   1.986   6.116   3.878
  185C2M     C3 3500   1.970   6.146   3.744
  185C2M     C4 3501   1.861   6.227   3.734
  185C2M     N2 3502   1.812   6.245   3.862
  185C2M     C5 3503   1.889   6.177   3.949
  185C2M     C6 3504   1.696   6.324   3.899
  185C2M     H1 3505   1.956   5.880   4.011
  185C2M     H2 3506   2.124   5.826   3.992
  185C2M     H3 3507   2.020   5.847   3.850
  185C2M     H4 3508   2.116   6.072   4.035
  185C2M     H5 3509   2.180   6.039   3.873
  185C2M     H6 3510   2.040   6.105   3.672
  185C2M     H7 3511   1.810   6.275   3.651
  185C2M     H8 3512   1.876   6.172   4.056
  185C2M     H9 3513   1.680   6.319   4.007
  185C2M    H10 3514   1.713   6.428   3.869
  185C2M    H11 3515   1.608   6.284   3.848
  186C2M     C1 3516   0.544   1.786   5.939
  186C2M     C2 3517   0.475   1.827   5.811
  186C2M     N1 3518   0.355   1.907   5.839
  186C2M     C3 3519   0.226   1.858   5.854
  186C2M     C4 3520   0.146   1.966   5.879
  186C2M     N2 3521   0.228   2.078   5.880
  186C2M     C5 3522   0.355   2.040   5.856
  186C2M     C6 3523   0.185   2.215   5.903
  186C2M     H1 3524   0.574   1.873   5.997
  186C2M     H2 3525   0.634   1.727   5.917
  186C2M     H3 3526   0.478   1.725   6.002
  186C2M     H4 3527   0.542   1.887   5.749
  186C2M     H5 3528   0.445   1.739   5.753
  186C2M     H6 3529   0.208   1.753   5.844
  186C2M     H7 3530   0.041   1.978   5.897
  186C2M     H8 3531   0.441   2.106   5.850
  186C2M     H9 3532   0.271   2.282   5.899
  186C2M    H10 3533   0.113   2.243   5.826
  186C2M    H11 3534   0.138   2.221   6.002
  187C2M     C1 3535   4.128   1.074   3.526
  187C2M     C2 3536   4.139   1.203   3.606
  187C2M     N1 3537   4.074   1.190   3.736
  187C2M     C3 3538   3.942   1.223   3.765
  187C2M     C4 3539   3.923   1.196   3.897
  187C2M     N2 3540   4.043   1.146   3.946
  187C2M     C5 3541   4.133   1.143   3.847
  187C2M     C6 3542   4.068   1.104   4.083
  187C2M     H1 3543   4.175   0.991   3.580
  187C2M     H2 3544   4.178   1.085   3.429
  187C2M     H3 3545   4.023   1.048   3.508
  187C2M     H4 3546   4.245   1.228   3.622
  187C2M     H5 3547   4.093   1.286   3.551
  187C2M     H6 3548   3.880   1.263   3.687
  187C2M     H7 3549   3.839   1.205   3.964
  187C2M     H8 3550   4.236   1.109   3.855
  187C2M     H9 3551   4.171   1.068   4.092
  187C2M    H10 3552   4.053   1.189   4.150
  187C2M    H11 3553   3.999   1.023   4.108
  188C2M     C1 3554   3.780   2.544   2.818
  188C2M     C2 3555   3.675   2.447   2.769
  188C2M     N1 3556   3.540   2.504   2.780
  188C2M     C3 3557   3.454   2.490   2.888
  188C2M     C4 3558   3.341   2.559   2.857
  188C2M     N2 3559   3.360   2.614   2.731
  188C2M     C5 3560   3.482   2.580   2.686
  188C2M     C6 3561   3.264   2.696   2.658
  188C2M     H1 3562   3.777   2.637   2.760
  188C2M     H2 3563   3.880   2.501   2.809
  188C2M     H3 3564   3.763   2.570   2.923
  188C2M     H4 3565   3.692   2.422   2.664
  188C2M     H5 3566   3.678   2.354   2.826
  188C2M     H6 3567   3.486   2.432   2.973
  188C2M     H7 3568   3.248   2.577   2.908
  188C2M     H8 3569   3.525   2.608   2.590
  188C2M     H9 3570   3.307   2.726   2.562
  188C2M    H10 3571   3.173   2.638   2.641
  188C2M    H11 3572   3.241   2.785   2.718
  189C2M     C1 3573   4.649   2.067   3.471
  189C2M     C2 3574   4.600   1.942   3.541
  189C2M     N1 3575   4.522   1.857   3.451
  189C2M     C3 3576   4.385   1.861   3.434
  189C2M     C4 3577   4.354   1.766   3.341
  189C2M     N2 3578   4.473   1.707   3.302
  189C2M     C5 3579   4.574   1.764   3.370
  189C2M     C6 3580   4.488   1.601   3.204
  189C2M     H1 3581   4.712   2.041   3.385
  189C2M     H2 3582   4.708   2.129   3.540
  189C2M     H3 3583   4.565   2.126   3.434
  189C2M     H4 3584   4.685   1.883   3.578
  189C2M     H5 3585   4.538   1.968   3.628
  189C2M     H6 3586   4.326   1.931   3.492
  189C2M     H7 3587   4.262   1.733   3.296
  189C2M     H8 3588   4.679   1.738   3.361
  189C2M     H9 3589   4.593   1.575   3.193
  189C2M    H10 3590   4.432   1.513   3.238
  189C2M    H11 3591   4.448   1.635   3.108
  190C2M     C1 3592   5.576   3.565   5.506
  190C2M     C2 3593   5.653   3.526   5.631
  190C2M     N1 3594   5.786   3.474   5.596
  190C2M     C3 3595   5.819   3.341   5.576
  190C2M     C4 3596   5.952   3.338   5.546
  190C2M     N2 3597   5.997   3.468   5.549
  190C2M     C5 3598   5.895   3.550   5.580
  190C2M     C6 3599   6.134   3.512   5.523
  190C2M     H1 3600   5.629   3.642   5.450
  190C2M     H2 3601   5.477   3.604   5.533
  190C2M     H3 3602   5.562   3.479   5.441
  190C2M     H4 3603   5.667   3.613   5.696
  190C2M     H5 3604   5.599   3.450   5.688
  190C2M     H6 3605   5.742   3.266   5.585
  190C2M     H7 3606   6.021   3.258   5.523
  190C2M     H8 3607   5.900   3.658   5.590
  190C2M     H9 3608   6.141   3.620   5.531
  190C2M    H10 3609   6.200   3.465   5.597
  190C2M    H11 3610   6.163   3.481   5.422
  191C2M     C1 3611   4.585   2.378   1.329
  191C2M     C2 3612   4.569   2.253   1.245
  191C2M     N1 3613   4.466   2.271   1.142
  191C2M     C3 3614   4.332   2.240   1.154
  191C2M     C4 3615   4.273   2.272   1.036
  191C2M     N2 3616   4.372   2.323   0.954
  191C2M     C5 3617   4.489   2.322   1.020
  191C2M     C6 3618   4.354   2.371   0.818
  191C2M     H1 3619   4.614   2.464   1.266
  191C2M     H2 3620   4.662   2.364   1.405
  191C2M     H3 3621   4.491   2.404   1.379
  191C2M     H4 3622   4.663   2.228   1.196
  191C2M     H5 3623   4.541   2.168   1.308
  191C2M     H6 3624   4.296   2.198   1.247
  191C2M     H7 3625   4.172   2.266   0.998
  191C2M     H8 3626   4.585   2.355   0.982
  191C2M     H9 3627   4.450   2.406   0.778
  191C2M    H10 3628   4.317   2.289   0.756
  191C2M    H11 3629   4.282   2.453   0.818
  192C2M     C1 3630   5.343   1.006   6.004
  192C2M     C2 3631   5.281   1.051   6.135
  192C2M     N1 3632   5.363   1.010   6.249
  192C2M     C3 3633   5.348   0.893   6.322
  192C2M     C4 3634   5.445   0.895   6.419
  192C2M     N2 3635   5.516   1.012   6.403
  192C2M     C5 3636   5.465   1.081   6.300
  192C2M     C6 3637   5.628   1.056   6.485
  192C2M     H1 3638   5.443   1.048   5.992
  192C2M     H2 3639   5.281   1.038   5.919
  192C2M     H3 3640   5.352   0.897   6.001
  192C2M     H4 3641   5.272   1.160   6.137
  192C2M     H5 3642   5.181   1.009   6.146
  192C2M     H6 3643   5.271   0.823   6.295
  192C2M     H7 3644   5.472   0.827   6.498
  192C2M     H8 3645   5.500   1.177   6.263
  192C2M     H9 3646   5.665   1.152   6.449
  192C2M    H10 3647   5.595   1.066   6.588
  192C2M    H11 3648   5.708   0.981   6.478
  193C2M     C1 3649   5.809   3.632   1.374
  193C2M     C2 3650   5.720   3.532   1.304
  193C2M     N1 3651   5.662   3.590   1.182
  193C2M     C3 3652   5.540   3.655   1.173
  193C2M     C4 3653   5.525   3.692   1.042
  193C2M     N2 3654   5.638   3.650   0.975
  193C2M     C5 3655   5.720   3.588   1.061
  193C2M     C6 3656   5.665   3.669   0.833
  193C2M     H1 3657   5.891   3.664   1.309
  193C2M     H2 3658   5.853   3.588   1.465
  193C2M     H3 3659   5.753   3.722   1.403
  193C2M     H4 3660   5.777   3.443   1.275
  193C2M     H5 3661   5.639   3.500   1.370
  193C2M     H6 3662   5.479   3.666   1.261
  193C2M     H7 3663   5.448   3.744   0.988
  193C2M     H8 3664   5.817   3.544   1.038
  193C2M     H9 3665   5.763   3.626   0.808
  193C2M    H10 3666   5.588   3.619   0.775
  193C2M    H11 3667   5.666   3.776   0.811
  194C2M     C1 3668   3.144   4.559   4.325
  194C2M     C2 3669   3.083   4.517   4.192
  194C2M     N1 3670   2.943   4.476   4.209
  194C2M     C3 3671   2.898   4.347   4.231
  194C2M     C4 3672   2.762   4.354   4.240
  194C2M     N2 3673   2.727   4.487   4.223
  194C2M     C5 3674   2.838   4.560   4.204
  194C2M     C6 3675   2.592   4.541   4.225
  194C2M     H1 3676   3.088   4.643   4.368
  194C2M     H2 3677   3.248   4.590   4.311
  194C2M     H3 3678   3.141   4.477   4.397
  194C2M     H4 3679   3.086   4.600   4.121
  194C2M     H5 3680   3.139   4.434   4.149
  194C2M     H6 3681   2.969   4.267   4.238
  194C2M     H7 3682   2.685   4.281   4.257
  194C2M     H8 3683   2.843   4.667   4.188
  194C2M     H9 3684   2.594   4.649   4.210
  194C2M    H10 3685   2.534   4.494   4.145
  194C2M    H11 3686   2.546   4.519   4.322
  195C2M     C1 3687   0.888   3.576   2.248
  195C2M     C2 3688   0.876   3.591   2.399
  195C2M     N1 3689   0.737   3.577   2.443
  195C2M     C3 3690   0.646   3.680   2.459
  195C2M     C4 3691   0.529   3.622   2.501
  195C2M     N2 3692   0.552   3.486   2.509
  195C2M     C5 3693   0.679   3.460   2.473
  195C2M     C6 3694   0.455   3.386   2.550
  195C2M     H1 3695   0.852   3.478   2.216
  195C2M     H2 3696   0.992   3.587   2.217
  195C2M     H3 3697   0.828   3.652   2.197
  195C2M     H4 3698   0.936   3.515   2.450
  195C2M     H5 3699   0.913   3.690   2.430
  195C2M     H6 3700   0.676   3.781   2.439
  195C2M     H7 3701   0.432   3.661   2.527
  195C2M     H8 3702   0.726   3.362   2.470
  195C2M     H9 3703   0.500   3.286   2.545
  195C2M    H10 3704   0.422   3.407   2.652
  195C2M    H11 3705   0.369   3.389   2.482
  196C2M     C1 3706   6.275   2.788   1.563
  196C2M     C2 3707   6.297   2.931   1.610
  196C2M     N1 3708   6.192   3.020   1.560
  196C2M     C3 3709   6.196   3.094   1.443
  196C2M     C4 3710   6.078   3.163   1.436
  196C2M     N2 3711   6.005   3.129   1.549
  196C2M     C5 3712   6.076   3.043   1.623
  196C2M     C6 3713   5.873   3.179   1.582
  196C2M     H1 3714   6.178   2.751   1.599
  196C2M     H2 3715   6.353   2.723   1.601
  196C2M     H3 3716   6.274   2.783   1.454
  196C2M     H4 3717   6.298   2.936   1.719
  196C2M     H5 3718   6.394   2.968   1.574
  196C2M     H6 3719   6.283   3.088   1.380
  196C2M     H7 3720   6.036   3.232   1.365
  196C2M     H8 3721   6.044   2.999   1.717
  196C2M     H9 3722   5.839   3.135   1.677
  196C2M    H10 3723   5.877   3.288   1.593
  196C2M    H11 3724   5.803   3.152   1.503
  197C2M     C1 3725   5.821   4.557   1.812
  197C2M     C2 3726   5.709   4.603   1.721
  197C2M     N1 3727   5.608   4.677   1.796
  197C2M     C3 3728   5.493   4.624   1.854
  197C2M     C4 3729   5.427   4.727   1.914
  197C2M     N2 3730   5.503   4.841   1.892
  197C2M     C5 3731   5.612   4.809   1.820
  197C2M     C6 3732   5.470   4.975   1.938
  197C2M     H1 3733   5.870   4.642   1.861
  197C2M     H2 3734   5.897   4.502   1.755
  197C2M     H3 3735   5.783   4.491   1.891
  197C2M     H4 3736   5.748   4.669   1.643
  197C2M     H5 3737   5.662   4.518   1.672
  197C2M     H6 3738   5.474   4.518   1.844
  197C2M     H7 3739   5.336   4.734   1.970
  197C2M     H8 3740   5.689   4.878   1.788
  197C2M     H9 3741   5.547   5.045   1.907
  197C2M    H10 3742   5.374   5.005   1.895
  197C2M    H11 3743   5.462   4.974   2.047
  198C2M     C1 3744   6.446   4.079   3.915
  198C2M     C2 3745   6.336   4.121   3.820
  198C2M     N1 3746   6.382   4.225   3.727
  198C2M     C3 3747   6.372   4.362   3.746
  198C2M     C4 3748   6.428   4.421   3.636
  198C2M     N2 3749   6.471   4.318   3.553
  198C2M     C5 3750   6.443   4.200   3.610
  198C2M     C6 3751   6.537   4.335   3.424
  198C2M     H1 3752   6.532   4.040   3.860
  198C2M     H2 3753   6.410   4.002   3.984
  198C2M     H3 3754   6.481   4.165   3.975
  198C2M     H4 3755   6.301   4.035   3.761
  198C2M     H5 3756   6.250   4.160   3.876
  198C2M     H6 3757   6.326   4.399   3.836
  198C2M     H7 3758   6.442   4.523   3.606
  198C2M     H8 3759   6.464   4.102   3.569
  198C2M     H9 3760   6.561   4.237   3.382
  198C2M    H10 3761   6.469   4.389   3.357
  198C2M    H11 3762   6.629   4.392   3.439
  199C2M     C1 3763   3.143   2.042   3.221
  199C2M     C2 3764   3.206   1.989   3.348
  199C2M     N1 3765   3.318   1.900   3.318
  199C2M     C3 3766   3.313   1.763   3.303
  199C2M     C4 3767   3.440   1.721   3.276
  199C2M     N2 3768   3.520   1.833   3.275
  199C2M     C5 3769   3.445   1.942   3.301
  199C2M     C6 3770   3.663   1.836   3.250
  199C2M     H1 3771   3.216   2.099   3.162
  199C2M     H2 3772   3.059   2.109   3.245
  199C2M     H3 3773   3.106   1.960   3.159
  199C2M     H4 3774   3.242   2.071   3.411
  199C2M     H5 3775   3.132   1.933   3.407
  199C2M     H6 3776   3.218   1.712   3.314
  199C2M     H7 3777   3.484   1.624   3.257
  199C2M     H8 3778   3.480   2.044   3.306
  199C2M     H9 3779   3.700   1.938   3.254
  199C2M    H10 3780   3.714   1.776   3.326
  199C2M    H11 3781   3.683   1.794   3.151
  200C2M     C1 3782   5.513   5.928   5.715
  200C2M     C2 3783   5.535   6.012   5.839
  200C2M     N1 3784   5.611   6.133   5.808
  200C2M     C3 3785   5.749   6.147   5.815
  200C2M     C4 3786   5.778   6.276   5.778
  200C2M     N2 3787   5.657   6.337   5.749
  200C2M     C5 3788   5.557   6.249   5.767
  200C2M     C6 3789   5.640   6.475   5.704
  200C2M     H1 3790   5.458   5.985   5.638
  200C2M     H2 3791   5.456   5.838   5.739
  200C2M     H3 3792   5.609   5.897   5.671
  200C2M     H4 3793   5.439   6.042   5.882
  200C2M     H5 3794   5.589   5.955   5.915
  200C2M     H6 3795   5.809   6.064   5.846
  200C2M     H7 3796   5.869   6.332   5.768
  200C2M     H8 3797   5.451   6.268   5.752
  200C2M     H9 3798   5.534   6.495   5.687
  200C2M    H10 3799   5.678   6.542   5.781
  200C2M    H11 3800   5.695   6.489   5.611
  201C2M     C1 3801   3.733   4.692   4.152
  201C2M     C2 3802   3.709   4.602   4.273
  201C2M     N1 3803   3.679   4.465   4.231
  201C2M     C3 3804   3.553   4.413   4.210
  201C2M     C4 3805   3.570   4.282   4.173
  201C2M     N2 3806   3.706   4.259   4.173
  201C2M     C5 3807   3.771   4.370   4.208
  201C2M     C6 3808   3.771   4.132   4.139
  201C2M     H1 3809   3.817   4.655   4.092
  201C2M     H2 3810   3.756   4.794   4.184
  201C2M     H3 3811   3.645   4.695   4.088
  201C2M     H4 3812   3.798   4.600   4.337
  201C2M     H5 3813   3.626   4.640   4.333
  201C2M     H6 3814   3.466   4.475   4.224
  201C2M     H7 3815   3.503   4.203   4.146
  201C2M     H8 3816   3.879   4.382   4.217
  201C2M     H9 3817   3.879   4.143   4.146
  201C2M    H10 3818   3.737   4.055   4.209
  201C2M    H11 3819   3.744   4.104   4.037
  202C2M     C1 3820   2.734   0.104   4.599
  202C2M     C2 3821   2.736   0.142   4.453
  202C2M     N1 3822   2.719   0.287   4.436
  202C2M     C3 3823   2.598   0.353   4.416
  202C2M     C4 3824   2.627   0.486   4.405
  202C2M     N2 3825   2.765   0.498   4.418
  202C2M     C5 3826   2.819   0.376   4.437
  202C2M     C6 3827   2.840   0.623   4.413
  202C2M     H1 3828   2.814   0.155   4.654
  202C2M     H2 3829   2.748  -0.004   4.611
  202C2M     H3 3830   2.639   0.132   4.646
  202C2M     H4 3831   2.832   0.114   4.407
  202C2M     H5 3832   2.657   0.091   4.398
  202C2M     H6 3833   2.507   0.295   4.412
  202C2M     H7 3834   2.568   0.574   4.389
  202C2M     H8 3835   2.924   0.354   4.450
  202C2M     H9 3836   2.946   0.602   4.428
  202C2M    H10 3837   2.825   0.669   4.315
  202C2M    H11 3838   2.804   0.689   4.492
  203C2M     C1 3839   1.514   2.628   3.695
  203C2M     C2 3840   1.469   2.606   3.838
  203C2M     N1 3841   1.579   2.558   3.921
  203C2M     C3 3842   1.609   2.425   3.947
  203C2M     C4 3843   1.719   2.426   4.029
  203C2M     N2 3844   1.752   2.558   4.051
  203C2M     C5 3845   1.666   2.637   3.985
  203C2M     C6 3846   1.863   2.605   4.134
  203C2M     H1 3847   1.596   2.701   3.690
  203C2M     H2 3848   1.431   2.664   3.633
  203C2M     H3 3849   1.551   2.534   3.651
  203C2M     H4 3850   1.432   2.700   3.880
  203C2M     H5 3851   1.387   2.534   3.842
  203C2M     H6 3852   1.549   2.348   3.904
  203C2M     H7 3853   1.778   2.348   4.075
  203C2M     H8 3854   1.667   2.746   3.984
  203C2M     H9 3855   1.866   2.715   4.132
  203C2M    H10 3856   1.848   2.571   4.236
  203C2M    H11 3857   1.956   2.566   4.094
  204C2M     C1 3858   1.976   0.618   2.407
  204C2M     C2 3859   2.102   0.671   2.343
  204C2M     N1 3860   2.121   0.813   2.372
  204C2M     C3 3861   2.077   0.919   2.294
  204C2M     C4 3862   2.115   1.034   2.358
  204C2M     N2 3863   2.181   0.995   2.474
  204C2M     C5 3864   2.184   0.861   2.481
  204C2M     C6 3865   2.239   1.085   2.573
  204C2M     H1 3866   1.979   0.630   2.516
  204C2M     H2 3867   1.963   0.512   2.385
  204C2M     H3 3868   1.888   0.672   2.371
  204C2M     H4 3869   2.190   0.617   2.380
  204C2M     H5 3870   2.098   0.658   2.234
  204C2M     H6 3871   2.024   0.899   2.203
  204C2M     H7 3872   2.104   1.139   2.337
  204C2M     H8 3873   2.229   0.802   2.560
  204C2M     H9 3874   2.284   1.027   2.654
  204C2M    H10 3875   2.317   1.146   2.525
  204C2M    H11 3876   2.161   1.149   2.613
  205C2M     C1 3877   2.594   3.707   1.018
  205C2M     C2 3878   2.636   3.714   0.872
  205C2M     N1 3879   2.714   3.835   0.846
  205C2M     C3 3880   2.664   3.957   0.802
  205C2M     C4 3881   2.771   4.042   0.791
  205C2M     N2 3882   2.883   3.970   0.828
  205C2M     C5 3883   2.847   3.845   0.862
  205C2M     C6 3884   3.020   4.021   0.832
  205C2M     H1 3885   2.681   3.707   1.084
  205C2M     H2 3886   2.536   3.616   1.036
  205C2M     H3 3887   2.532   3.793   1.045
  205C2M     H4 3888   2.698   3.628   0.846
  205C2M     H5 3889   2.549   3.714   0.807
  205C2M     H6 3890   2.559   3.967   0.785
  205C2M     H7 3891   2.782   4.145   0.761
  205C2M     H8 3892   2.914   3.766   0.895
  205C2M     H9 3893   3.088   3.943   0.866
  205C2M    H10 3894   3.048   4.053   0.731
  205C2M    H11 3895   3.024   4.106   0.900
  206C2M     C1 3896   4.280   5.765   4.381
  206C2M     C2 3897   4.170   5.773   4.277
  206C2M     N1 3898   4.085   5.891   4.299
  206C2M     C3 3899   3.969   5.895   4.374
  206C2M     C4 3900   3.923   6.023   4.368
  206C2M     N2 3901   4.012   6.094   4.290
  206C2M     C5 3902   4.110   6.013   4.249
  206C2M     C6 3903   4.002   6.236   4.257
  206C2M     H1 3904   4.344   5.854   4.377
  206C2M     H2 3905   4.343   5.677   4.363
  206C2M     H3 3906   4.238   5.758   4.482
  206C2M     H4 3907   4.212   5.780   4.176
  206C2M     H5 3908   4.107   5.684   4.281
  206C2M     H6 3909   3.934   5.805   4.422
  206C2M     H7 3910   3.837   6.074   4.410
  206C2M     H8 3911   4.194   6.040   4.186
  206C2M     H9 3912   4.087   6.266   4.195
  206C2M    H10 3913   3.909   6.253   4.202
  206C2M    H11 3914   4.002   6.294   4.350
  207C2M     C1 3915   6.348   3.123   1.056
  207C2M     C2 3916   6.274   3.222   0.967
  207C2M     N1 3917   6.354   3.342   0.944
  207C2M     C3 3918   6.350   3.459   1.019
  207C2M     C4 3919   6.440   3.545   0.963
  207C2M     N2 3920   6.498   3.479   0.856
  207C2M     C5 3921   6.445   3.356   0.846
  207C2M     C6 3922   6.600   3.533   0.768
  207C2M     H1 3923   6.443   3.093   1.011
  207C2M     H2 3924   6.287   3.033   1.073
  207C2M     H3 3925   6.370   3.168   1.154
  207C2M     H4 3926   6.252   3.176   0.870
  207C2M     H5 3927   6.179   3.251   1.013
  207C2M     H6 3928   6.282   3.465   1.103
  207C2M     H7 3929   6.471   3.645   0.986
  207C2M     H8 3930   6.470   3.281   0.772
  207C2M     H9 3931   6.628   3.458   0.693
  207C2M    H10 3932   6.560   3.622   0.718
  207C2M    H11 3933   6.688   3.559   0.827
  208C2M     C1 3934   0.286   3.101   3.374
  208C2M     C2 3935   0.207   3.080   3.246
  208C2M     N1 3936   0.234   2.948   3.189
  208C2M     C3 3937   0.331   2.918   3.094
  208C2M     C4 3938   0.322   2.784   3.069
  208C2M     N2 3939   0.219   2.736   3.149
  208C2M     C5 3940   0.167   2.836   3.221
  208C2M     C6 3941   0.174   2.597   3.154
  208C2M     H1 3942   0.259   3.025   3.449
  208C2M     H2 3943   0.264   3.200   3.416
  208C2M     H3 3944   0.393   3.094   3.356
  208C2M     H4 3945   0.100   3.088   3.265
  208C2M     H5 3946   0.234   3.156   3.172
  208C2M     H6 3947   0.395   2.997   3.057
  208C2M     H7 3948   0.375   2.716   3.005
  208C2M     H8 3949   0.086   2.829   3.292
  208C2M     H9 3950   0.093   2.587   3.226
  208C2M    H10 3951   0.139   2.567   3.055
  208C2M    H11 3952   0.258   2.534   3.185
  209C2M     C1 3953   3.813   1.674   5.610
  209C2M     C2 3954   3.847   1.617   5.747
  209C2M     N1 3955   3.957   1.521   5.738
  209C2M     C3 3956   3.945   1.384   5.722
  209C2M     C4 3957   4.072   1.333   5.719
  209C2M     N2 3958   4.158   1.440   5.733
  209C2M     C5 3959   4.087   1.553   5.745
  209C2M     C6 3960   4.304   1.432   5.735
  209C2M     H1 3961   3.900   1.725   5.567
  209C2M     H2 3962   3.732   1.746   5.618
  209C2M     H3 3963   3.783   1.595   5.541
  209C2M     H4 3964   3.877   1.697   5.815
  209C2M     H5 3965   3.760   1.567   5.790
  209C2M     H6 3966   3.847   1.341   5.714
  209C2M     H7 3967   4.112   1.234   5.708
  209C2M     H8 3968   4.128   1.653   5.758
  209C2M     H9 3969   4.346   1.532   5.747
  209C2M    H10 3970   4.335   1.369   5.820
  209C2M    H11 3971   4.339   1.388   5.642
  210C2M     C1 3972   2.507   6.485   5.427
  210C2M     C2 3973   2.460   6.534   5.292
  210C2M     N1 3974   2.571   6.585   5.212
  210C2M     C3 3975   2.614   6.717   5.207
  210C2M     C4 3976   2.720   6.721   5.121
  210C2M     N2 3977   2.740   6.592   5.076
  210C2M     C5 3978   2.649   6.511   5.132
  210C2M     C6 3979   2.843   6.549   4.983
  210C2M     H1 3980   2.581   6.406   5.416
  210C2M     H2 3981   2.423   6.447   5.486
  210C2M     H3 3982   2.553   6.567   5.484
  210C2M     H4 3983   2.413   6.452   5.236
  210C2M     H5 3984   2.385   6.613   5.303
  210C2M     H6 3985   2.562   6.792   5.265
  210C2M     H7 3986   2.785   6.800   5.086
  210C2M     H8 3987   2.640   6.404   5.116
  210C2M     H9 3988   2.836   6.441   4.967
  210C2M    H10 3989   2.829   6.601   4.888
  210C2M    H11 3990   2.941   6.573   5.025
  211C2M     C1 3991   3.780   6.148   3.862
  211C2M     C2 3992   3.727   6.080   3.987
  211C2M     N1 3993   3.649   5.960   3.953
  211C2M     C3 3994   3.512   5.955   3.932
  211C2M     C4 3995   3.482   5.825   3.903
  211C2M     N2 3996   3.601   5.755   3.906
  211C2M     C5 3997   3.701   5.838   3.937
  211C2M     C6 3998   3.616   5.612   3.881
  211C2M     H1 3999   3.845   6.080   3.806
  211C2M     H2 4000   3.839   6.236   3.889
  211C2M     H3 4001   3.699   6.178   3.796
  211C2M     H4 4002   3.809   6.050   4.052
  211C2M     H5 4003   3.663   6.148   4.043
  211C2M     H6 4004   3.454   6.045   3.941
  211C2M     H7 4005   3.390   5.773   3.880
  211C2M     H8 4006   3.806   5.811   3.947
  211C2M     H9 4007   3.721   5.583   3.889
  211C2M    H10 4008   3.557   5.556   3.954
  211C2M    H11 4009   3.580   5.590   3.780
  212C2M     C1 4010   4.135   4.188   6.256
  212C2M     C2 4011   4.170   4.313   6.333
  212C2M     N1 4012   4.314   4.336   6.335
  212C2M     C3 4013   4.402   4.293   6.433
  212C2M     C4 4014   4.527   4.336   6.396
  212C2M     N2 4015   4.511   4.404   6.277
  212C2M     C5 4016   4.382   4.404   6.241
  212C2M     C6 4017   4.618   4.468   6.201
  212C2M     H1 4018   4.171   4.195   6.152
  212C2M     H2 4019   4.027   4.172   6.254
  212C2M     H3 4020   4.183   4.100   6.301
  212C2M     H4 4021   4.122   4.400   6.288
  212C2M     H5 4022   4.134   4.305   6.437
  212C2M     H6 4023   4.365   4.236   6.517
  212C2M     H7 4024   4.625   4.326   6.439
  212C2M     H8 4025   4.339   4.450   6.153
  212C2M     H9 4026   4.577   4.514   6.110
  212C2M    H10 4027   4.665   4.545   6.263
  212C2M    H11 4028   4.692   4.392   6.173
  213C2M     C1 4029   4.460   3.824   4.001
  213C2M     C2 4030   4.451   3.919   4.119
  213C2M     N1 4031   4.434   4.058   4.073
  213C2M     C3 4032   4.536   4.149   4.051
  213C2M     C4 4033   4.477   4.265   4.010
  213C2M     N2 4034   4.341   4.242   4.008
  213C2M     C5 4035   4.316   4.116   4.047
  213C2M     C6 4036   4.239   4.339   3.970
  213C2M     H1 4037   4.370   3.830   3.940
  213C2M     H2 4038   4.471   3.721   4.036
  213C2M     H3 4039   4.545   3.849   3.938
  213C2M     H4 4040   4.365   3.894   4.182
  213C2M     H5 4041   4.541   3.913   4.181
  213C2M     H6 4042   4.638   4.119   4.068
  213C2M     H7 4043   4.515   4.362   3.981
  213C2M     H8 4044   4.219   4.069   4.055
  213C2M     H9 4045   4.140   4.293   3.977
  213C2M    H10 4046   4.244   4.424   4.038
  213C2M    H11 4047   4.257   4.371   3.867
  214C2M     C1 4048   1.360   2.469   5.096
  214C2M     C2 4049   1.268   2.379   5.177
  214C2M     N1 4050   1.316   2.241   5.178
  214C2M     C3 4051   1.280   2.141   5.089
  214C2M     C4 4052   1.348   2.029   5.126
  214C2M     N2 4053   1.424   2.062   5.236
  214C2M     C5 4054   1.404   2.192   5.266
  214C2M     C6 4055   1.513   1.973   5.309
  214C2M     H1 4056   1.462   2.468   5.138
  214C2M     H2 4057   1.324   2.572   5.096
  214C2M     H3 4058   1.367   2.435   4.992
  214C2M     H4 4059   1.262   2.414   5.280
  214C2M     H5 4060   1.167   2.381   5.135
  214C2M     H6 4061   1.210   2.164   5.010
  214C2M     H7 4062   1.352   1.928   5.087
  214C2M     H8 4063   1.450   2.246   5.348
  214C2M     H9 4064   1.561   2.026   5.391
  214C2M    H10 4065   1.454   1.890   5.349
  214C2M    H11 4066   1.589   1.935   5.240
  215C2M     C1 4067   2.105   1.637   4.969
  215C2M     C2 4068   2.184   1.512   5.005
  215C2M     N1 4069   2.141   1.398   4.924
  215C2M     C3 4070   2.044   1.305   4.959
  215C2M     C4 4071   2.036   1.216   4.856
  215C2M     N2 4072   2.128   1.256   4.760
  215C2M     C5 4073   2.191   1.367   4.803
  215C2M     C6 4074   2.154   1.190   4.633
  215C2M     H1 4075   2.118   1.662   4.864
  215C2M     H2 4076   2.138   1.722   5.030
  215C2M     H3 4077   1.998   1.621   4.987
  215C2M     H4 4078   2.291   1.528   4.987
  215C2M     H5 4079   2.171   1.487   5.111
  215C2M     H6 4080   1.994   1.315   5.053
  215C2M     H7 4081   1.977   1.128   4.837
  215C2M     H8 4082   2.268   1.421   4.750
  215C2M     H9 4083   2.230   1.245   4.577
  215C2M    H10 4084   2.188   1.088   4.652
  215C2M    H11 4085   2.061   1.188   4.575
  216C2M     C1 4086   0.913   0.312   1.494
  216C2M     C2 4087   0.779   0.380   1.482
  216C2M     N1 4088   0.731   0.426   1.613
  216C2M     C3 4089   0.649   0.355   1.699
  216C2M     C4 4090   0.630   0.434   1.809
  216C2M     N2 4091   0.700   0.551   1.787
  216C2M     C5 4092   0.761   0.545   1.667
  216C2M     C6 4093   0.707   0.665   1.878
  216C2M     H1 4094   0.988   0.380   1.535
  216C2M     H2 4095   0.948   0.278   1.395
  216C2M     H3 4096   0.907   0.224   1.559
  216C2M     H4 4097   0.786   0.467   1.416
  216C2M     H5 4098   0.704   0.312   1.439
  216C2M     H6 4099   0.616   0.257   1.671
  216C2M     H7 4100   0.575   0.422   1.901
  216C2M     H8 4101   0.823   0.622   1.623
  216C2M     H9 4102   0.771   0.743   1.835
  216C2M    H10 4103   0.607   0.704   1.894
  216C2M    H11 4104   0.750   0.631   1.973
  217C2M     C1 4105   4.457   0.665   1.403
  217C2M     C2 4106   4.529   0.704   1.531
  217C2M     N1 4107   4.651   0.781   1.501
  217C2M     C3 4108   4.778   0.728   1.486
  217C2M     C4 4109   4.861   0.834   1.460
  217C2M     N2 4110   4.782   0.948   1.460
  217C2M     C5 4111   4.655   0.914   1.486
  217C2M     C6 4112   4.829   1.084   1.437
  217C2M     H1 4113   4.429   0.754   1.346
  217C2M     H2 4114   4.366   0.608   1.426
  217C2M     H3 4115   4.521   0.603   1.340
  217C2M     H4 4116   4.465   0.766   1.594
  217C2M     H5 4117   4.557   0.615   1.588
  217C2M     H6 4118   4.793   0.622   1.495
  217C2M     H7 4119   4.967   0.843   1.441
  217C2M     H8 4120   4.571   0.981   1.493
  217C2M     H9 4121   4.745   1.153   1.442
  217C2M    H10 4122   4.903   1.110   1.513
  217C2M    H11 4123   4.875   1.089   1.338
  218C2M     C1 4124   3.312   3.816   4.139
  218C2M     C2 4125   3.404   3.697   4.119
  218C2M     N1 4126   3.357   3.612   4.010
  218C2M     C3 4127   3.273   3.502   4.023
  218C2M     C4 4128   3.255   3.452   3.897
  218C2M     N2 4129   3.328   3.533   3.811
  218C2M     C5 4130   3.389   3.629   3.881
  218C2M     C6 4131   3.337   3.516   3.666
  218C2M     H1 4132   3.306   3.877   4.048
  218C2M     H2 4133   3.348   3.880   4.221
  218C2M     H3 4134   3.210   3.784   4.164
  218C2M     H4 4135   3.505   3.731   4.095
  218C2M     H5 4136   3.409   3.638   4.211
  218C2M     H6 4137   3.237   3.474   4.120
  218C2M     H7 4138   3.199   3.369   3.857
  218C2M     H8 4139   3.453   3.707   3.841
  218C2M     H9 4140   3.400   3.594   3.624
  218C2M    H10 4141   3.381   3.418   3.644
  218C2M    H11 4142   3.237   3.523   3.623
  219C2M     C1 4143   2.650   2.570   6.336
  219C2M     C2 4144   2.773   2.497   6.288
  219C2M     N1 4145   2.768   2.355   6.323
  219C2M     C3 4146   2.820   2.297   6.438
  219C2M     C4 4147   2.793   2.163   6.430
  219C2M     N2 4148   2.725   2.143   6.311
  219C2M     C5 4149   2.711   2.260   6.247
  219C2M     C6 4150   2.676   2.014   6.262
  219C2M     H1 4151   2.559   2.527   6.292
  219C2M     H2 4152   2.655   2.676   6.309
  219C2M     H3 4153   2.640   2.562   6.445
  219C2M     H4 4154   2.782   2.505   6.179
  219C2M     H5 4155   2.863   2.540   6.332
  219C2M     H6 4156   2.870   2.359   6.510
  219C2M     H7 4157   2.813   2.079   6.494
  219C2M     H8 4158   2.662   2.275   6.152
  219C2M     H9 4159   2.625   2.028   6.166
  219C2M    H10 4160   2.761   1.947   6.248
  219C2M    H11 4161   2.606   1.973   6.334
  220C2M     C1 4162   2.371   6.394   3.287
  220C2M     C2 4163   2.342   6.440   3.429
  220C2M     N1 4164   2.466   6.477   3.498
  220C2M     C3 4165   2.544   6.393   3.576
  220C2M     C4 4166   2.649   6.468   3.621
  220C2M     N2 4167   2.633   6.595   3.569
  220C2M     C5 4168   2.521   6.599   3.495
  220C2M     C6 4169   2.722   6.708   3.591
  220C2M     H1 4170   2.420   6.474   3.230
  220C2M     H2 4171   2.278   6.367   3.236
  220C2M     H3 4172   2.437   6.307   3.286
  220C2M     H4 4173   2.276   6.527   3.429
  220C2M     H5 4174   2.293   6.360   3.485
  220C2M     H6 4175   2.514   6.290   3.590
  220C2M     H7 4176   2.734   6.447   3.684
  220C2M     H8 4177   2.483   6.685   3.441
  220C2M     H9 4178   2.686   6.796   3.537
  220C2M    H10 4179   2.726   6.730   3.698
  220C2M    H11 4180   2.822   6.682   3.555
  221C2M     C1 4181   4.349   3.067   0.055
  221C2M     C2 4182   4.217   3.133   0.019
  221C2M     N1 4183   4.147   3.180   0.138
  221C2M     C3 4184   4.052   3.109   0.210
  221C2M     C4 4185   4.013   3.189   0.313
  221C2M     N2 4186   4.085   3.307   0.302
  221C2M     C5 4187   4.166   3.300   0.196
  221C2M     C6 4188   4.075   3.421   0.392
  221C2M     H1 4189   4.414   3.136   0.108
  221C2M     H2 4190   4.401   3.033  -0.036
  221C2M     H3 4191   4.332   2.980   0.119
  221C2M     H4 4192   4.235   3.220  -0.047
  221C2M     H5 4193   4.153   3.064  -0.035
  221C2M     H6 4194   4.025   3.010   0.178
  221C2M     H7 4195   3.943   3.178   0.394
  221C2M     H8 4196   4.234   3.377   0.162
  221C2M     H9 4197   4.144   3.500   0.360
  221C2M    H10 4198   3.973   3.460   0.390
  221C2M    H11 4199   4.100   3.390   0.493
  222C2M     C1 4200   3.765   5.402   3.604
  222C2M     C2 4201   3.805   5.368   3.462
  222C2M     N1 4202   3.878   5.241   3.456
  222C2M     C3 4203   4.016   5.226   3.463
  222C2M     C4 4204   4.041   5.092   3.454
  222C2M     N2 4205   3.919   5.029   3.443
  222C2M     C5 4206   3.821   5.121   3.444
  222C2M     C6 4207   3.898   4.885   3.431
  222C2M     H1 4208   3.701   5.324   3.646
  222C2M     H2 4209   3.710   5.497   3.607
  222C2M     H3 4210   3.853   5.411   3.668
  222C2M     H4 4211   3.717   5.359   3.398
  222C2M     H5 4212   3.869   5.447   3.420
  222C2M     H6 4213   4.078   5.313   3.473
  222C2M     H7 4214   4.131   5.033   3.455
  222C2M     H8 4215   3.714   5.101   3.437
  222C2M     H9 4216   3.791   4.864   3.424
  222C2M    H10 4217   3.948   4.849   3.340
  222C2M    H11 4218   3.940   4.836   3.519
  223C2M     C1 4219   5.642   2.056   5.907
  223C2M     C2 4220   5.752   1.981   5.979
  223C2M     N1 4221   5.776   2.038   6.112
  223C2M     C3 4222   5.868   2.137   6.144
  223C2M     C4 4223   5.857   2.160   6.278
  223C2M     N2 4224   5.758   2.075   6.325
  223C2M     C5 4225   5.710   2.002   6.223
  223C2M     C6 4226   5.713   2.066   6.463
  223C2M     H1 4227   5.548   2.052   5.963
  223C2M     H2 4228   5.625   2.013   5.808
  223C2M     H3 4229   5.668   2.162   5.894
  223C2M     H4 4230   5.725   1.876   5.992
  223C2M     H5 4231   5.845   1.986   5.922
  223C2M     H6 4232   5.930   2.177   6.066
  223C2M     H7 4233   5.907   2.226   6.347
  223C2M     H8 4234   5.631   1.927   6.230
  223C2M     H9 4235   5.633   1.992   6.471
  223C2M    H10 4236   5.796   2.036   6.526
  223C2M    H11 4237   5.675   2.164   6.495
  224C2M     C1 4238   3.242   1.896   4.079
  224C2M     C2 4239   3.268   2.042   4.049
  224C2M     N1 4240   3.407   2.064   4.009
  224C2M     C3 4241   3.512   2.098   4.093
  224C2M     C4 4242   3.623   2.109   4.015
  224C2M     N2 4243   3.584   2.081   3.885
  224C2M     C5 4244   3.452   2.055   3.883
  224C2M     C6 4245   3.670   2.082   3.768
  224C2M     H1 4246   3.263   1.834   3.991
  224C2M     H2 4247   3.138   1.880   4.108
  224C2M     H3 4248   3.307   1.860   4.160
  224C2M     H4 4249   3.203   2.076   3.968
  224C2M     H5 4250   3.247   2.103   4.137
  224C2M     H6 4251   3.493   2.110   4.198
  224C2M     H7 4252   3.726   2.133   4.035
  224C2M     H8 4253   3.393   2.030   3.796
  224C2M     H9 4254   3.613   2.055   3.679
  224C2M    H10 4255   3.713   2.181   3.755
  224C2M    H11 4256   3.750   2.008   3.782
  225C2M     C1 4257   4.391   6.352   3.334
  225C2M     C2 4258   4.305   6.227   3.328
  225C2M     N1 4259   4.208   6.224   3.438
  225C2M     C3 4260   4.226   6.166   3.562
  225C2M     C4 4261   4.111   6.187   3.633
  225C2M     N2 4262   4.026   6.258   3.550
  225C2M     C5 4263   4.086   6.280   3.432
  225C2M     C6 4264   3.891   6.302   3.584
  225C2M     H1 4265   4.329   6.442   3.326
  225C2M     H2 4266   4.463   6.353   3.251
  225C2M     H3 4267   4.446   6.357   3.428
  225C2M     H4 4268   4.251   6.222   3.234
  225C2M     H5 4269   4.368   6.137   3.335
  225C2M     H6 4270   4.319   6.116   3.584
  225C2M     H7 4271   4.079   6.161   3.732
  225C2M     H8 4272   4.044   6.333   3.347
  225C2M     H9 4273   3.848   6.357   3.500
  225C2M    H10 4274   3.830   6.215   3.607
  225C2M    H11 4275   3.897   6.368   3.672
  226C2M     C1 4276   2.585   1.397   5.953
  226C2M     C2 4277   2.718   1.429   5.888
  226C2M     N1 4278   2.716   1.562   5.825
  226C2M     C3 4279   2.683   1.589   5.693
  226C2M     C4 4280   2.693   1.724   5.677
  226C2M     N2 4281   2.732   1.776   5.799
  226C2M     C5 4282   2.745   1.676   5.888
  226C2M     C6 4283   2.756   1.917   5.828
  226C2M     H1 4284   2.561   1.472   6.030
  226C2M     H2 4285   2.588   1.299   6.000
  226C2M     H3 4286   2.504   1.398   5.879
  226C2M     H4 4287   2.798   1.428   5.962
  226C2M     H5 4288   2.742   1.355   5.812
  226C2M     H6 4289   2.656   1.507   5.628
  226C2M     H7 4290   2.678   1.790   5.593
  226C2M     H8 4291   2.775   1.687   5.992
  226C2M     H9 4292   2.784   1.929   5.933
  226C2M    H10 4293   2.836   1.954   5.764
  226C2M    H11 4294   2.664   1.973   5.808
  227C2M     C1 4295   0.578   6.231   4.031
  227C2M     C2 4296   0.652   6.160   3.920
  227C2M     N1 4297   0.716   6.038   3.969
  227C2M     C3 4298   0.846   6.027   4.016
  227C2M     C4 4299   0.865   5.896   4.051
  227C2M     N2 4300   0.746   5.830   4.024
  227C2M     C5 4301   0.657   5.918   3.974
  227C2M     C6 4302   0.720   5.689   4.046
  227C2M     H1 4303   0.500   6.166   4.074
  227C2M     H2 4304   0.530   6.322   3.994
  227C2M     H3 4305   0.646   6.259   4.112
  227C2M     H4 4306   0.584   6.133   3.839
  227C2M     H5 4307   0.729   6.225   3.878
  227C2M     H6 4308   0.909   6.115   4.019
  227C2M     H7 4309   0.948   5.841   4.092
  227C2M     H8 4310   0.555   5.895   3.943
  227C2M     H9 4311   0.618   5.664   4.016
  227C2M    H10 4312   0.790   5.630   3.985
  227C2M    H11 4313   0.734   5.666   4.152
  228C2M     C1 4314   6.026   1.830   3.646
  228C2M     C2 4315   6.149   1.902   3.697
  228C2M     N1 4316   6.211   1.983   3.592
  228C2M     C3 4317   6.312   1.943   3.506
  228C2M     C4 4318   6.339   2.050   3.425
  228C2M     N2 4319   6.253   2.152   3.463
  228C2M     C5 4320   6.176   2.110   3.565
  228C2M     C6 4321   6.247   2.285   3.403
  228C2M     H1 4322   5.952   1.901   3.610
  228C2M     H2 4323   5.981   1.770   3.726
  228C2M     H3 4324   6.052   1.764   3.563
  228C2M     H4 4325   6.123   1.968   3.781
  228C2M     H5 4326   6.224   1.830   3.734
  228C2M     H6 4327   6.351   1.844   3.514
  228C2M     H7 4328   6.408   2.066   3.344
  228C2M     H8 4329   6.100   2.168   3.616
  228C2M     H9 4330   6.170   2.344   3.452
  228C2M    H10 4331   6.344   2.334   3.415
  228C2M    H11 4332   6.223   2.275   3.297
  229C2M     C1 4333   3.223   4.085   1.219
  229C2M     C2 4334   3.195   4.127   1.362
  229C2M     N1 4335   3.073   4.207   1.371
  229C2M     C3 4336   3.065   4.346   1.365
  229C2M     C4 4337   2.934   4.378   1.378
  229C2M     N2 4338   2.864   4.260   1.391
  229C2M     C5 4339   2.950   4.157   1.387
  229C2M     C6 4340   2.719   4.247   1.407
  229C2M     H1 4341   3.139   4.026   1.179
  229C2M     H2 4342   3.314   4.025   1.213
  229C2M     H3 4343   3.235   4.173   1.154
  229C2M     H4 4344   3.183   4.039   1.426
  229C2M     H5 4345   3.279   4.186   1.402
  229C2M     H6 4346   3.156   4.403   1.353
  229C2M     H7 4347   2.880   4.472   1.379
  229C2M     H8 4348   2.924   4.051   1.395
  229C2M     H9 4349   2.692   4.141   1.414
  229C2M    H10 4350   2.689   4.299   1.498
  229C2M    H11 4351   2.670   4.292   1.320
  230C2M     C1 4352   5.110   4.210   5.807
  230C2M     C2 4353   5.092   4.158   5.948
  230C2M     N1 4354   5.104   4.012   5.952
  230C2M     C3 4355   5.000   3.921   5.940
  230C2M     C4 4356   5.055   3.796   5.949
  230C2M     N2 4357   5.192   3.814   5.966
  230C2M     C5 4358   5.220   3.945   5.967
  230C2M     C6 4359   5.290   3.708   5.980
  230C2M     H1 4360   5.209   4.183   5.768
  230C2M     H2 4361   5.102   4.319   5.805
  230C2M     H3 4362   5.035   4.169   5.740
  230C2M     H4 4363   5.167   4.200   6.015
  230C2M     H5 4364   4.993   4.186   5.987
  230C2M     H6 4365   4.899   3.957   5.927
  230C2M     H7 4366   5.015   3.696   5.946
  230C2M     H8 4367   5.318   3.990   5.978
  230C2M     H9 4368   5.390   3.751   5.990
  230C2M    H10 4369   5.267   3.649   6.068
  230C2M    H11 4370   5.287   3.644   5.890
  231C2M     C1 4371   6.785   1.224   3.697
  231C2M     C2 4372   6.651   1.228   3.628
  231C2M     N1 4373   6.628   1.357   3.563
  231C2M     C3 4374   6.563   1.466   3.619
  231C2M     C4 4375   6.564   1.565   3.525
  231C2M     N2 4376   6.629   1.514   3.414
  231C2M     C5 4377   6.667   1.388   3.438
  231C2M     C6 4378   6.652   1.585   3.289
  231C2M     H1 4379   6.866   1.242   3.626
  231C2M     H2 4380   6.802   1.127   3.745
  231C2M     H3 4381   6.791   1.302   3.774
  231C2M     H4 4382   6.645   1.149   3.551
  231C2M     H5 4383   6.570   1.209   3.699
  231C2M     H6 4384   6.525   1.459   3.720
  231C2M     H7 4385   6.527   1.666   3.522
  231C2M     H8 4386   6.720   1.322   3.370
  231C2M     H9 4387   6.707   1.521   3.219
  231C2M    H10 4388   6.556   1.613   3.245
  231C2M    H11 4389   6.712   1.675   3.309
  232C2M     C1 4390   6.116   5.432   5.224
  232C2M     C2 4391   6.251   5.376   5.265
  232C2M     N1 4392   6.237   5.245   5.329
  232C2M     C3 4393   6.224   5.222   5.465
  232C2M     C4 4394   6.214   5.086   5.481
  232C2M     N2 4395   6.221   5.031   5.354
  232C2M     C5 4396   6.235   5.128   5.263
  232C2M     C6 4397   6.214   4.888   5.323
  232C2M     H1 4398   6.066   5.364   5.154
  232C2M     H2 4399   6.127   5.529   5.176
  232C2M     H3 4400   6.050   5.444   5.311
  232C2M     H4 4401   6.315   5.365   5.178
  232C2M     H5 4402   6.301   5.444   5.335
  232C2M     H6 4403   6.224   5.305   5.533
  232C2M     H7 4404   6.202   5.022   5.566
  232C2M     H8 4405   6.243   5.115   5.156
  232C2M     H9 4406   6.221   4.873   5.215
  232C2M    H10 4407   6.297   4.837   5.373
  232C2M    H11 4408   6.119   4.849   5.360
  233C2M     C1 4409   4.204   1.512   0.258
  233C2M     C2 4410   4.179   1.515   0.408
  233C2M     N1 4411   4.041   1.478   0.439
  233C2M     C3 4412   3.934   1.566   0.453
  233C2M     C4 4413   3.824   1.490   0.482
  233C2M     N2 4414   3.867   1.358   0.484
  233C2M     C5 4415   3.998   1.353   0.458
  233C2M     C6 4416   3.782   1.242   0.510
  233C2M     H1 4417   4.186   1.412   0.218
  233C2M     H2 4418   4.308   1.539   0.236
  233C2M     H3 4419   4.138   1.582   0.206
  233C2M     H4 4420   4.246   1.445   0.459
  233C2M     H5 4421   4.199   1.615   0.448
  233C2M     H6 4422   3.951   1.672   0.441
  233C2M     H7 4423   3.721   1.512   0.501
  233C2M     H8 4424   4.059   1.263   0.453
  233C2M     H9 4425   3.842   1.151   0.505
  233C2M    H10 4426   3.739   1.251   0.611
  233C2M    H11 4427   3.702   1.238   0.436
  234C2M     C1 4428   1.559   3.028   4.199
  234C2M     C2 4429   1.538   3.112   4.323
  234C2M     N1 4430   1.523   3.254   4.289
  234C2M     C3 4431   1.625   3.348   4.284
  234C2M     C4 4432   1.567   3.466   4.248
  234C2M     N2 4433   1.432   3.442   4.233
  234C2M     C5 4434   1.406   3.312   4.258
  234C2M     C6 4435   1.331   3.540   4.195
  234C2M     H1 4436   1.475   3.038   4.130
  234C2M     H2 4437   1.570   2.922   4.225
  234C2M     H3 4438   1.649   3.059   4.145
  234C2M     H4 4439   1.448   3.080   4.376
  234C2M     H5 4440   1.623   3.101   4.392
  234C2M     H6 4441   1.726   3.317   4.306
  234C2M     H7 4442   1.605   3.566   4.232
  234C2M     H8 4443   1.310   3.264   4.253
  234C2M     H9 4444   1.233   3.493   4.189
  234C2M    H10 4445   1.329   3.619   4.270
  234C2M    H11 4446   1.357   3.582   4.097
  235C2M     C1 4447   0.310   3.070   0.871
  235C2M     C2 4448   0.396   3.096   0.993
  235C2M     N1 4449   0.528   3.146   0.954
  235C2M     C3 4450   0.641   3.069   0.933
  235C2M     C4 4451   0.742   3.155   0.900
  235C2M     N2 4452   0.687   3.283   0.901
  235C2M     C5 4453   0.558   3.275   0.934
  235C2M     C6 4454   0.759   3.406   0.871
  235C2M     H1 4455   0.296   3.161   0.812
  235C2M     H2 4456   0.211   3.033   0.900
  235C2M     H3 4457   0.356   2.995   0.805
  235C2M     H4 4458   0.348   3.171   1.057
  235C2M     H5 4459   0.408   3.004   1.051
  235C2M     H6 4460   0.635   2.962   0.945
  235C2M     H7 4461   0.846   3.143   0.874
  235C2M     H8 4462   0.489   3.359   0.944
  235C2M     H9 4463   0.691   3.491   0.879
  235C2M    H10 4464   0.841   3.418   0.942
  235C2M    H11 4465   0.799   3.400   0.769
  236C2M     C1 4466   1.622   6.334   6.063
  236C2M     C2 4467   1.657   6.383   6.203
  236C2M     N1 4468   1.775   6.470   6.200
  236C2M     C3 4469   1.906   6.429   6.219
  236C2M     C4 4470   1.984   6.540   6.209
  236C2M     N2 4471   1.899   6.646   6.184
  236C2M     C5 4472   1.773   6.602   6.179
  236C2M     C6 4473   1.939   6.785   6.166
  236C2M     H1 4474   1.602   6.418   5.996
  236C2M     H2 4475   1.533   6.270   6.066
  236C2M     H3 4476   1.705   6.276   6.021
  236C2M     H4 4477   1.573   6.441   6.244
  236C2M     H5 4478   1.676   6.299   6.270
  236C2M     H6 4479   1.927   6.324   6.238
  236C2M     H7 4480   2.090   6.558   6.216
  236C2M     H8 4481   1.684   6.662   6.161
  236C2M     H9 4482   1.851   6.847   6.146
  236C2M    H10 4483   1.989   6.820   6.257
  236C2M    H11 4484   2.008   6.792   6.081
  237C2M     C1 4485   3.189   3.123   4.924
  237C2M     C2 4486   3.152   3.000   5.005
  237C2M     N1 4487   3.272   2.933   5.057
  237C2M     C3 4488   3.340   2.829   4.995
  237C2M     C4 4489   3.444   2.797   5.077
  237C2M     N2 4490   3.437   2.881   5.186
  237C2M     C5 4491   3.332   2.963   5.173
  237C2M     C6 4492   3.529   2.882   5.299
  237C2M     H1 4493   3.246   3.194   4.984
  237C2M     H2 4494   3.099   3.172   4.886
  237C2M     H3 4495   3.252   3.095   4.838
  237C2M     H4 4496   3.090   3.028   5.090
  237C2M     H5 4497   3.096   2.929   4.944
  237C2M     H6 4498   3.305   2.792   4.900
  237C2M     H7 4499   3.524   2.724   5.071
  237C2M     H8 4500   3.301   3.040   5.242
  237C2M     H9 4501   3.501   2.959   5.370
  237C2M    H10 4502   3.526   2.784   5.348
  237C2M    H11 4503   3.631   2.901   5.263
  238C2M     C1 4504   4.397   3.871   5.335
  238C2M     C2 4505   4.276   3.831   5.417
  238C2M     N1 4506   4.275   3.899   5.547
  238C2M     C3 4507   4.328   3.851   5.665
  238C2M     C4 4508   4.305   3.946   5.760
  238C2M     N2 4509   4.238   4.050   5.698
  238C2M     C5 4510   4.220   4.020   5.568
  238C2M     C6 4511   4.193   4.173   5.762
  238C2M     H1 4512   4.398   3.979   5.317
  238C2M     H2 4513   4.397   3.820   5.239
  238C2M     H3 4514   4.490   3.846   5.388
  238C2M     H4 4515   4.184   3.856   5.364
  238C2M     H5 4516   4.276   3.723   5.435
  238C2M     H6 4517   4.377   3.755   5.666
  238C2M     H7 4518   4.328   3.954   5.865
  238C2M     H8 4519   4.171   4.082   5.494
  238C2M     H9 4520   4.144   4.237   5.688
  238C2M    H10 4521   4.122   4.148   5.841
  238C2M    H11 4522   4.279   4.225   5.804
  239C2M     C1 4523   3.240   1.302   3.728
  239C2M     C2 4524   3.389   1.275   3.736
  239C2M     N1 4525   3.466   1.383   3.675
  239C2M     C3 4526   3.509   1.389   3.543
  239C2M     C4 4527   3.577   1.506   3.528
  239C2M     N2 4528   3.574   1.570   3.651
  239C2M     C5 4529   3.506   1.494   3.739
  239C2M     C6 4530   3.634   1.699   3.682
  239C2M     H1 4531   3.215   1.396   3.779
  239C2M     H2 4532   3.183   1.221   3.775
  239C2M     H3 4533   3.208   1.312   3.624
  239C2M     H4 4534   3.420   1.265   3.841
  239C2M     H5 4535   3.413   1.181   3.685
  239C2M     H6 4536   3.485   1.308   3.476
  239C2M     H7 4537   3.627   1.554   3.446
  239C2M     H8 4538   3.488   1.518   3.843
  239C2M     H9 4539   3.616   1.725   3.786
  239C2M    H10 4540   3.742   1.692   3.665
  239C2M    H11 4541   3.591   1.775   3.617
  240C2M     C1 4542   5.780   5.971   1.120
  240C2M     C2 4543   5.783   6.007   0.973
  240C2M     N1 4544   5.803   6.151   0.954
  240C2M     C3 4545   5.703   6.246   0.940
  240C2M     C4 4546   5.765   6.366   0.924
  240C2M     N2 4547   5.902   6.342   0.928
  240C2M     C5 4548   5.923   6.211   0.946
  240C2M     C6 4549   6.006   6.442   0.916
  240C2M     H1 4550   5.874   6.000   1.169
  240C2M     H2 4551   5.766   5.864   1.134
  240C2M     H3 4552   5.699   6.024   1.171
  240C2M     H4 4553   5.864   5.954   0.923
  240C2M     H5 4554   5.689   5.977   0.925
  240C2M     H6 4555   5.600   6.215   0.943
  240C2M     H7 4556   5.730   6.467   0.910
  240C2M     H8 4557   6.019   6.162   0.954
  240C2M     H9 4558   6.105   6.395   0.924
  240C2M    H10 4559   5.998   6.490   0.818
  240C2M    H11 4560   5.995   6.516   0.995
  241C2M     C1 4561   4.876   2.616   4.249
  241C2M     C2 4562   4.801   2.736   4.193
  241C2M     N1 4563   4.778   2.836   4.297
  241C2M     C3 4564   4.665   2.846   4.377
  241C2M     C4 4565   4.684   2.953   4.459
  241C2M     N2 4566   4.808   3.006   4.427
  241C2M     C5 4567   4.863   2.934   4.328
  241C2M     C6 4568   4.870   3.122   4.490
  241C2M     H1 4569   4.973   2.646   4.289
  241C2M     H2 4570   4.893   2.542   4.170
  241C2M     H3 4571   4.819   2.568   4.329
  241C2M     H4 4572   4.858   2.782   4.112
  241C2M     H5 4573   4.704   2.704   4.152
  241C2M     H6 4574   4.585   2.775   4.365
  241C2M     H7 4575   4.626   2.999   4.537
  241C2M     H8 4576   4.960   2.952   4.282
  241C2M     H9 4577   4.968   3.141   4.446
  241C2M    H10 4578   4.806   3.210   4.475
  241C2M    H11 4579   4.882   3.103   4.597
  242C2M     C1 4580   1.437   3.384   3.669
  242C2M     C2 4581   1.485   3.285   3.565
  242C2M     N1 4582   1.630   3.296   3.544
  242C2M     C3 4583   1.692   3.375   3.449
  242C2M     C4 4584   1.827   3.356   3.464
  242C2M     N2 4585   1.843   3.266   3.568
  242C2M     C5 4586   1.722   3.231   3.615
  242C2M     C6 4587   1.970   3.217   3.619
  242C2M     H1 4588   1.487   3.366   3.765
  242C2M     H2 4589   1.329   3.374   3.684
  242C2M     H3 4590   1.458   3.486   3.638
  242C2M     H4 4591   1.463   3.182   3.596
  242C2M     H5 4592   1.434   3.302   3.469
  242C2M     H6 4593   1.632   3.435   3.382
  242C2M     H7 4594   1.914   3.395   3.414
  242C2M     H8 4595   1.703   3.162   3.697
  242C2M     H9 4596   1.953   3.148   3.702
  242C2M    H10 4597   2.023   3.165   3.539
  242C2M    H11 4598   2.030   3.301   3.654
  243C2M     C1 4599   3.387   4.302   4.416
  243C2M     C2 4600   3.330   4.253   4.548
  243C2M     N1 4601   3.229   4.345   4.599
  243C2M     C3 4602   3.251   4.451   4.687
  243C2M     C4 4603   3.129   4.510   4.708
  243C2M     N2 4604   3.037   4.440   4.633
  243C2M     C5 4605   3.098   4.340   4.567
  243C2M     C6 4606   2.894   4.468   4.625
  243C2M     H1 4607   3.308   4.311   4.341
  243C2M     H2 4608   3.463   4.232   4.379
  243C2M     H3 4609   3.434   4.400   4.428
  243C2M     H4 4610   3.284   4.155   4.536
  243C2M     H5 4611   3.410   4.243   4.623
  243C2M     H6 4612   3.350   4.470   4.722
  243C2M     H7 4613   3.097   4.594   4.767
  243C2M     H8 4614   3.052   4.268   4.501
  243C2M     H9 4615   2.845   4.397   4.558
  243C2M    H10 4616   2.850   4.459   4.725
  243C2M    H11 4617   2.880   4.570   4.587
  244C2M     C1 4618   2.711   4.741   3.186
  244C2M     C2 4619   2.769   4.708   3.050
  244C2M     N1 4620   2.869   4.602   3.059
  244C2M     C3 4621   3.006   4.620   3.076
  244C2M     C4 4622   3.061   4.495   3.079
  244C2M     N2 4623   2.958   4.405   3.065
  244C2M     C5 4624   2.842   4.471   3.053
  244C2M     C6 4625   2.971   4.260   3.063
  244C2M     H1 4626   2.663   4.652   3.230
  244C2M     H2 4627   2.635   4.820   3.178
  244C2M     H3 4628   2.789   4.774   3.255
  244C2M     H4 4629   2.690   4.675   2.982
  244C2M     H5 4630   2.815   4.797   3.006
  244C2M     H6 4631   3.045   4.720   3.083
  244C2M     H7 4632   3.162   4.459   3.090
  244C2M     H8 4633   2.744   4.427   3.041
  244C2M     H9 4634   2.873   4.213   3.052
  244C2M    H10 4635   3.035   4.231   2.979
  244C2M    H11 4636   3.017   4.227   3.157
  245C2M     C1 4637   3.733   5.955   5.798
  245C2M     C2 4638   3.845   5.958   5.697
  245C2M     N1 4639   3.974   5.926   5.759
  245C2M     C3 4640   4.064   6.017   5.811
  245C2M     C4 4641   4.170   5.945   5.859
  245C2M     N2 4642   4.141   5.812   5.835
  245C2M     C5 4643   4.022   5.802   5.775
  245C2M     C6 4644   4.227   5.699   5.870
  245C2M     H1 4645   3.725   5.856   5.845
  245C2M     H2 4646   3.637   5.978   5.750
  245C2M     H3 4647   3.750   6.028   5.878
  245C2M     H4 4648   3.827   5.885   5.617
  245C2M     H5 4649   3.852   6.057   5.650
  245C2M     H6 4650   4.041   6.122   5.808
  245C2M     H7 4651   4.262   5.971   5.908
  245C2M     H8 4652   3.974   5.710   5.743
  245C2M     H9 4653   4.179   5.605   5.841
  245C2M    H10 4654   4.322   5.709   5.818
  245C2M    H11 4655   4.243   5.699   5.978
  246C2M     C1 4656   2.999   3.314   6.288
  246C2M     C2 4657   3.051   3.377   6.416
  246C2M     N1 4658   2.940   3.426   6.499
  246C2M     C3 4659   2.889   3.555   6.497
  246C2M     C4 4660   2.788   3.558   6.589
  246C2M     N2 4661   2.780   3.432   6.644
  246C2M     C5 4662   2.873   3.353   6.589
  246C2M     C6 4663   2.686   3.389   6.747
  246C2M     H1 4664   2.932   3.231   6.310
  246C2M     H2 4665   3.082   3.277   6.227
  246C2M     H3 4666   2.943   3.388   6.229
  246C2M     H4 4667   3.106   3.303   6.475
  246C2M     H5 4668   3.118   3.460   6.394
  246C2M     H6 4669   2.931   3.628   6.430
  246C2M     H7 4670   2.719   3.635   6.622
  246C2M     H8 4671   2.891   3.248   6.612
  246C2M     H9 4672   2.702   3.284   6.771
  246C2M    H10 4673   2.701   3.450   6.837
  246C2M    H11 4674   2.584   3.403   6.710
  247C2M     C1 4675   2.625   4.097   2.848
  247C2M     C2 4676   2.660   3.955   2.888
  247C2M     N1 4677   2.602   3.858   2.795
  247C2M     C3 4678   2.479   3.795   2.808
  247C2M     C4 4679   2.465   3.713   2.700
  247C2M     N2 4680   2.579   3.728   2.623
  247C2M     C5 4681   2.662   3.816   2.682
  247C2M     C6 4682   2.607   3.659   2.498
  247C2M     H1 4683   2.663   4.119   2.747
  247C2M     H2 4684   2.669   4.169   2.918
  247C2M     H3 4685   2.517   4.112   2.847
  247C2M     H4 4686   2.769   3.941   2.889
  247C2M     H5 4687   2.623   3.934   2.989
  247C2M     H6 4688   2.417   3.818   2.894
  247C2M     H7 4689   2.388   3.646   2.667
  247C2M     H8 4690   2.759   3.847   2.646
  247C2M     H9 4691   2.704   3.690   2.459
  247C2M    H10 4692   2.608   3.551   2.517
  247C2M    H11 4693   2.529   3.683   2.426
  248C2M     C1 4694   5.311   5.658   6.603
  248C2M     C2 4695   5.401   5.738   6.694
  248C2M     N1 4696   5.483   5.833   6.619
  248C2M     C3 4697   5.611   5.809   6.569
  248C2M     C4 4698   5.650   5.923   6.505
  248C2M     N2 4699   5.546   6.014   6.517
  248C2M     C5 4700   5.446   5.957   6.586
  248C2M     C6 4701   5.544   6.149   6.463
  248C2M     H1 4702   5.244   5.724   6.547
  248C2M     H2 4703   5.250   5.588   6.660
  248C2M     H3 4704   5.370   5.601   6.530
  248C2M     H4 4705   5.342   5.795   6.767
  248C2M     H5 4706   5.468   5.671   6.751
  248C2M     H6 4707   5.657   5.713   6.586
  248C2M     H7 4708   5.739   5.952   6.453
  248C2M     H8 4709   5.351   6.004   6.611
  248C2M     H9 4710   5.449   6.197   6.486
  248C2M    H10 4711   5.626   6.206   6.508
  248C2M    H11 4712   5.557   6.145   6.355
  249C2M     C1 4713   4.375   6.408   1.010
  249C2M     C2 4714   4.331   6.497   1.124
  249C2M     N1 4715   4.205   6.565   1.091
  249C2M     C3 4716   4.193   6.691   1.033
  249C2M     C4 4717   4.059   6.715   1.020
  249C2M     N2 4718   3.993   6.605   1.071
  249C2M     C5 4719   4.083   6.515   1.113
  249C2M     C6 4720   3.848   6.588   1.077
  249C2M     H1 4721   4.300   6.332   0.988
  249C2M     H2 4722   4.469   6.357   1.036
  249C2M     H3 4723   4.392   6.466   0.918
  249C2M     H4 4724   4.315   6.439   1.215
  249C2M     H5 4725   4.407   6.573   1.145
  249C2M     H6 4726   4.282   6.746   1.007
  249C2M     H7 4727   4.002   6.798   0.981
  249C2M     H8 4728   4.061   6.418   1.158
  249C2M     H9 4729   3.824   6.491   1.121
  249C2M    H10 4730   3.806   6.667   1.140
  249C2M    H11 4731   3.807   6.594   0.976
  250C2M     C1 4732   1.794   2.984   5.929
  250C2M     C2 4733   1.915   3.004   5.841
  250C2M     N1 4734   2.017   3.084   5.909
  250C2M     C3 4735   2.031   3.222   5.901
  250C2M     C4 4736   2.138   3.255   5.980
  250C2M     N2 4737   2.187   3.137   6.033
  250C2M     C5 4738   2.112   3.034   5.989
  250C2M     C6 4739   2.301   3.125   6.123
  250C2M     H1 4740   1.821   2.933   6.022
  250C2M     H2 4741   1.718   2.924   5.877
  250C2M     H3 4742   1.748   3.080   5.955
  250C2M     H4 4743   1.960   2.908   5.814
  250C2M     H5 4744   1.887   3.055   5.748
  250C2M     H6 4745   1.963   3.279   5.841
  250C2M     H7 4746   2.187   3.348   6.005
  250C2M     H8 4747   2.126   2.930   6.014
  250C2M     H9 4748   2.316   3.020   6.150
  250C2M    H10 4749   2.390   3.162   6.073
  250C2M    H11 4750   2.281   3.183   6.213
  251TF2     C1 4751   1.725   2.104   6.739
  251TF2     F1 4752   1.620   2.133   6.821
  251TF2     F2 4753   1.697   1.986   6.676
  251TF2     F3 4754   1.830   2.077   6.823
  251TF2     S1 4755   1.768   2.238   6.620
  251TF2     O1 4756   1.772   2.363   6.696
  251TF2     O2 4757   1.900   2.200   6.567
  251TF2     N1 4758   1.655   2.227   6.509
  251TF2     S2 4759   1.507   2.231   6.563
  251TF2     O3 4760   1.472   2.337   6.658
  251TF2     O4 4761   1.451   2.100   6.596
  251TF2     C2 4762   1.427   2.279   6.406
  251TF2     F4 4763   1.291   2.290   6.416
  251TF2     F5 4764   1.451   2.189   6.306
  251TF2     F6 4765   1.472   2.399   6.359
  252TF2     C1 4766   3.046   0.133   4.805
  252TF2     F1 4767   3.054   0.199   4.687
  252TF2     F2 4768   3.058  -0.001   4.779
  252TF2     F3 4769   2.917   0.150   4.848
  252TF2     S1 4770   3.167   0.189   4.932
  252TF2     O1 4771   3.162   0.336   4.934
  252TF2     O2 4772   3.120   0.130   5.058
  252TF2     N1 4773   3.304   0.125   4.885
  252TF2     S2 4774   3.345   0.156   4.735
  252TF2     O3 4775   3.339   0.295   4.691
  252TF2     O4 4776   3.295   0.059   4.638
  252TF2     C2 4777   3.524   0.119   4.753
  252TF2     F4 4778   3.593   0.134   4.636
  252TF2     F5 4779   3.546  -0.009   4.795
  252TF2     F6 4780   3.585   0.200   4.845
  253TF2     C1 4781   2.530   5.091   3.774
  253TF2     F1 4782   2.514   5.113   3.641
  253TF2     F2 4783   2.483   4.966   3.802
  253TF2     F3 4784   2.444   5.177   3.836
  253TF2     S1 4785   2.703   5.115   3.835
  253TF2     O1 4786   2.751   5.242   3.780
  253TF2     O2 4787   2.691   5.119   3.982
  253TF2     N1 4788   2.778   4.984   3.787
  253TF2     S2 4789   2.766   4.953   3.633
  253TF2     O3 4790   2.792   5.062   3.539
  253TF2     O4 4791   2.651   4.869   3.597
  253TF2     C2 4792   2.912   4.843   3.620
  253TF2     F4 4793   2.931   4.794   3.495
  253TF2     F5 4794   2.903   4.735   3.703
  253TF2     F6 4795   3.028   4.907   3.654
  254TF2     C1 4796   6.485   4.464   2.403
  254TF2     F1 4797   6.421   4.485   2.522
  254TF2     F2 4798   6.596   4.543   2.402
  254TF2     F3 4799   6.402   4.516   2.308
  254TF2     S1 4800   6.525   4.288   2.368
  254TF2     O1 4801   6.404   4.210   2.396
  254TF2     O2 4802   6.561   4.285   2.226
  254TF2     N1 4803   6.650   4.258   2.461
  254TF2     S2 4804   6.630   4.293   2.614
  254TF2     O3 4805   6.509   4.244   2.679
  254TF2     O4 4806   6.667   4.429   2.650
  254TF2     C2 4807   6.764   4.187   2.678
  254TF2     F4 4808   6.778   4.194   2.814
  254TF2     F5 4809   6.886   4.220   2.626
  254TF2     F6 4810   6.746   4.055   2.649
  255TF2     C1 4811   4.034   1.011   2.813
  255TF2     F1 4812   3.917   0.942   2.814
  255TF2     F2 4813   4.130   0.929   2.760
  255TF2     F3 4814   4.068   1.027   2.944
  255TF2     S1 4815   4.026   1.173   2.726
  255TF2     O1 4816   3.905   1.242   2.773
  255TF2     O2 4817   4.149   1.243   2.765
  255TF2     N1 4818   4.027   1.134   2.572
  255TF2     S2 4819   3.917   1.030   2.528
  255TF2     O3 4820   3.779   1.054   2.571
  255TF2     O4 4821   3.959   0.890   2.539
  255TF2     C2 4822   3.919   1.068   2.350
  255TF2     F4 4823   3.833   0.991   2.278
  255TF2     F5 4824   4.042   1.049   2.294
  255TF2     F6 4825   3.885   1.198   2.323
  256TF2     C1 4826   1.080   3.130   2.912
  256TF2     F1 4827   1.120   3.007   2.870
  256TF2     F2 4828   1.166   3.222   2.860
  256TF2     F3 4829   1.101   3.131   3.047
  256TF2     S1 4830   0.904   3.170   2.872
  256TF2     O1 4831   0.824   3.054   2.910
  256TF2     O2 4832   0.873   3.288   2.954
  256TF2     N1 4833   0.907   3.205   2.717
  256TF2     S2 4834   0.973   3.094   2.625
  256TF2     O3 4835   0.929   2.956   2.643
  256TF2     O4 4836   1.117   3.110   2.606
  256TF2     C2 4837   0.897   3.148   2.468
  256TF2     F4 4838   0.935   3.072   2.361
  256TF2     F5 4839   0.929   3.277   2.437
  256TF2     F6 4840   0.760   3.143   2.471
  257TF2     C1 4841   4.298   0.769   6.409
  257TF2     F1 4842   4.277   0.827   6.530
  257TF2     F2 4843   4.427   0.725   6.405
  257TF2     F3 4844   4.292   0.872   6.318
  257TF2     S1 4845   4.177   0.637   6.366
  257TF2     O1 4846   4.043   0.688   6.397
  257TF2     O2 4847   4.196   0.612   6.223
  257TF2     N1 4848   4.225   0.513   6.453
  257TF2     S2 4849   4.241   0.542   6.608
  257TF2     O3 4850   4.131   0.610   6.676
  257TF2     O4 4851   4.374   0.589   6.647
  257TF2     C2 4852   4.233   0.368   6.664
  257TF2     F4 4853   4.246   0.355   6.799
  257TF2     F5 4854   4.331   0.291   6.608
  257TF2     F6 4855   4.114   0.308   6.631
  258TF2     C1 4856   5.755   4.637   6.615
  258TF2     F1 4857   5.879   4.679   6.651
  258TF2     F2 4858   5.685   4.746   6.571
  258TF2     F3 4859   5.694   4.600   6.732
  258TF2     S1 4860   5.754   4.499   6.493
  258TF2     O1 4861   5.850   4.399   6.540
  258TF2     O2 4862   5.616   4.449   6.495
  258TF2     N1 4863   5.788   4.570   6.356
  258TF2     S2 4864   5.920   4.657   6.356
  258TF2     O3 4865   6.041   4.597   6.412
  258TF2     O4 4866   5.900   4.797   6.394
  258TF2     C2 4867   5.946   4.659   6.175
  258TF2     F4 4868   6.056   4.731   6.138
  258TF2     F5 4869   5.840   4.713   6.108
  258TF2     F6 4870   5.963   4.533   6.123
  259TF2     C1 4871   3.454   5.091   2.739
  259TF2     F1 4872   3.427   5.207   2.674
  259TF2     F2 4873   3.583   5.057   2.710
  259TF2     F3 4874   3.377   4.995   2.680
  259TF2     S1 4875   3.424   5.098   2.921
  259TF2     O1 4876   3.292   5.159   2.940
  259TF2     O2 4877   3.428   4.958   2.965
  259TF2     N1 4878   3.547   5.180   2.977
  259TF2     S2 4879   3.571   5.321   2.909
  259TF2     O3 4880   3.456   5.409   2.893
  259TF2     O4 4881   3.659   5.316   2.792
  259TF2     C2 4882   3.671   5.394   3.043
  259TF2     F4 4883   3.713   5.521   3.015
  259TF2     F5 4884   3.784   5.322   3.069
  259TF2     F6 4885   3.603   5.402   3.161
  260TF2     C1 4886   3.438   1.541   5.185
  260TF2     F1 4887   3.494   1.536   5.309
  260TF2     F2 4888   3.304   1.518   5.199
  260TF2     F3 4889   3.486   1.431   5.119
  260TF2     S1 4890   3.473   1.696   5.092
  260TF2     O1 4891   3.616   1.722   5.104
  260TF2     O2 4892   3.433   1.666   4.953
  260TF2     N1 4893   3.377   1.803   5.158
  260TF2     S2 4894   3.389   1.816   5.315
  260TF2     O3 4895   3.523   1.828   5.372
  260TF2     O4 4896   3.300   1.726   5.390
  260TF2     C2 4897   3.315   1.982   5.330
  260TF2     F4 4898   3.307   2.026   5.459
  260TF2     F5 4899   3.187   1.986   5.281
  260TF2     F6 4900   3.385   2.077   5.261
  261TF2     C1 4901   1.311   3.097   1.590
  261TF2     F1 4902   1.429   3.041   1.553
  261TF2     F2 4903   1.331   3.232   1.605
  261TF2     F3 4904   1.286   3.050   1.716
  261TF2     S1 4905   1.171   3.061   1.476
  261TF2     O1 4906   1.173   2.917   1.449
  261TF2     O2 4907   1.050   3.101   1.550
  261TF2     N1 4908   1.197   3.156   1.352
  261TF2     S2 4909   1.340   3.143   1.287
  261TF2     O3 4910   1.390   3.009   1.257
  261TF2     O4 4911   1.441   3.233   1.345
  261TF2     C2 4912   1.298   3.216   1.124
  261TF2     F4 4913   1.405   3.223   1.040
  261TF2     F5 4914   1.250   3.343   1.136
  261TF2     F6 4915   1.201   3.145   1.059
  262TF2     C1 4916   2.386   1.682   0.572
  262TF2     F1 4917   2.438   1.735   0.458
  262TF2     F2 4918   2.262   1.736   0.590
  262TF2     F3 4919   2.462   1.733   0.674
  262TF2     S1 4920   2.384   1.498   0.576
  262TF2     O1 4921   2.515   1.452   0.532
  262TF2     O2 4922   2.357   1.464   0.716
  262TF2     N1 4923   2.261   1.460   0.482
  262TF2     S2 4924   2.266   1.523   0.337
  262TF2     O3 4925   2.390   1.512   0.262
  262TF2     O4 4926   2.200   1.653   0.327
  262TF2     C2 4927   2.151   1.404   0.258
  262TF2     F4 4928   2.129   1.432   0.126
  262TF2     F5 4929   2.028   1.403   0.318
  262TF2     F6 4930   2.197   1.276   0.263
  263TF2     C1 4931   5.862   3.591   2.458
  263TF2     F1 4932   5.885   3.522   2.343
  263TF2     F2 4933   5.728   3.610   2.468
  263TF2     F3 4934   5.915   3.716   2.436
  263TF2     S1 4935   5.934   3.514   2.609
  263TF2     O1 4936   6.072   3.477   2.577
  263TF2     O2 4937   5.927   3.619   2.712
  263TF2     N1 4938   5.835   3.394   2.640
  263TF2     S2 4939   5.809   3.295   2.521
  263TF2     O3 4940   5.926   3.244   2.448
  263TF2     O4 4941   5.697   3.332   2.434
  263TF2     C2 4942   5.750   3.154   2.621
  263TF2     F4 4943   5.715   3.046   2.545
  263TF2     F5 4944   5.639   3.186   2.694
  263TF2     F6 4945   5.843   3.110   2.710
  264TF2     C1 4946   5.730   2.142   3.712
  264TF2     F1 4947   5.804   2.180   3.819
  264TF2     F2 4948   5.659   2.030   3.747
  264TF2     F3 4949   5.820   2.099   3.618
  264TF2     S1 4950   5.621   2.274   3.644
  264TF2     O1 4951   5.702   2.395   3.632
  264TF2     O2 4952   5.578   2.223   3.513
  264TF2     N1 4953   5.500   2.280   3.746
  264TF2     S2 4954   5.542   2.300   3.897
  264TF2     O3 4955   5.639   2.406   3.928
  264TF2     O4 4956   5.565   2.175   3.970
  264TF2     C2 4957   5.381   2.363   3.957
  264TF2     F4 4958   5.381   2.390   4.091
  264TF2     F5 4959   5.280   2.275   3.935
  264TF2     F6 4960   5.344   2.479   3.895
  265TF2     C1 4961   3.374   3.604   3.080
  265TF2     F1 4962   3.386   3.481   3.136
  265TF2     F2 4963   3.358   3.587   2.945
  265TF2     F3 4964   3.496   3.664   3.095
  265TF2     S1 4965   3.240   3.708   3.153
  265TF2     O1 4966   3.253   3.700   3.299
  265TF2     O2 4967   3.266   3.844   3.102
  265TF2     N1 4968   3.107   3.648   3.091
  265TF2     S2 4969   3.089   3.492   3.111
  265TF2     O3 4970   3.110   3.438   3.246
  265TF2     O4 4971   3.146   3.410   3.004
  265TF2     C2 4972   2.908   3.487   3.085
  265TF2     F4 4973   2.856   3.361   3.094
  265TF2     F5 4974   2.872   3.535   2.962
  265TF2     F6 4975   2.840   3.563   3.176
  266TF2     C1 4976   5.965   4.943   3.618
  266TF2     F1 4977   6.014   4.896   3.735
  266TF2     F2 4978   5.885   5.050   3.646
  266TF2     F3 4979   5.879   4.845   3.573
  266TF2     S1 4980   6.093   4.983   3.492
  266TF2     O1 4981   6.186   4.870   3.487
  266TF2     O2 4982   6.018   4.999   3.366
  266TF2     N1 4983   6.153   5.121   3.541
  266TF2     S2 4984   6.204   5.122   3.691
  266TF2     O3 4985   6.291   5.012   3.733
  266TF2     O4 4986   6.103   5.159   3.789
  266TF2     C2 4987   6.314   5.267   3.676
  266TF2     F4 4988   6.376   5.299   3.793
  266TF2     F5 4989   6.246   5.379   3.637
  266TF2     F6 4990   6.413   5.249   3.583
  267TF2     C1 4991   3.404   2.922   2.264
  267TF2     F1 4992   3.393   2.871   2.390
  267TF2     F2 4993   3.282   2.909   2.204
  267TF2     F3 4994   3.487   2.836   2.198
  267TF2     S1 4995   3.467   3.095   2.257
  267TF2     O1 4996   3.584   3.102   2.345
  267TF2     O2 4997   3.501   3.116   2.116
  267TF2     N1 4998   3.342   3.182   2.300
  267TF2     S2 4999   3.275   3.142   2.438
  267TF2     O3 5000   3.363   3.122   2.552
  267TF2     O4 5001   3.169   3.041   2.426
  267TF2     C2 5002   3.189   3.300   2.469
  267TF2     F4 5003   3.117   3.299   2.584
  267TF2     F5 5004   3.102   3.332   2.369
  267TF2     F6 5005   3.276   3.405   2.479
  268TF2     C1 5006   5.496   6.008   1.997
  268TF2     F1 5007   5.604   6.043   2.071
  268TF2     F2 5008   5.417   6.119   1.983
  268TF2     F3 5009   5.424   5.922   2.076
  268TF2     S1 5010   5.537   5.930   1.835
  268TF2     O1 5011   5.639   5.829   1.860
  268TF2     O2 5012   5.410   5.872   1.788
  268TF2     N1 5013   5.581   6.053   1.745
  268TF2     S2 5014   5.695   6.144   1.805
  268TF2     O3 5015   5.814   6.077   1.859
  268TF2     O4 5016   5.646   6.254   1.888
  268TF2     C2 5017   5.750   6.220   1.648
  268TF2     F4 5018   5.851   6.310   1.665
  268TF2     F5 5019   5.648   6.287   1.586
  268TF2     F6 5020   5.795   6.128   1.558
  269TF2     C1 5021   0.465   2.640   2.469
  269TF2     F1 5022   0.461   2.772   2.500
  269TF2     F2 5023   0.475   2.629   2.334
  269TF2     F3 5024   0.341   2.591   2.501
  269TF2     S1 5025   0.597   2.546   2.556
  269TF2     O1 5026   0.592   2.583   2.698
  269TF2     O2 5027   0.563   2.404   2.535
  269TF2     N1 5028   0.729   2.586   2.479
  269TF2     S2 5029   0.756   2.741   2.467
  269TF2     O3 5030   0.744   2.822   2.588
  269TF2     O4 5031   0.697   2.803   2.348
  269TF2     C2 5032   0.935   2.731   2.433
  269TF2     F4 5033   0.993   2.854   2.414
  269TF2     F5 5034   0.963   2.658   2.321
  269TF2     F6 5035   1.004   2.672   2.535
  270TF2     C1 5036   1.169   4.804   6.284
  270TF2     F1 5037   1.052   4.871   6.275
  270TF2     F2 5038   1.259   4.886   6.346
  270TF2     F3 5039   1.214   4.792   6.155
  270TF2     S1 5040   1.157   4.639   6.365
  270TF2     O1 5041   1.042   4.570   6.306
  270TF2     O2 5042   1.284   4.572   6.334
  270TF2     N1 5043   1.145   4.674   6.519
  270TF2     S2 5044   1.030   4.776   6.557
  270TF2     O3 5045   0.897   4.751   6.502
  270TF2     O4 5046   1.071   4.917   6.553
  270TF2     C2 5047   1.018   4.733   6.734
  270TF2     F4 5048   0.925   4.807   6.801
  270TF2     F5 5049   1.137   4.752   6.800
  270TF2     F6 5050   0.985   4.602   6.754
  271TF2     C1 5051   5.546   1.990   0.670
  271TF2     F1 5052   5.476   1.922   0.575
  271TF2     F2 5053   5.589   2.107   0.614
  271TF2     F3 5054   5.660   1.917   0.691
  271TF2     S1 5055   5.455   2.018   0.827
  271TF2     O1 5056   5.394   1.891   0.865
  271TF2     O2 5057   5.558   2.062   0.923
  271TF2     N1 5058   5.355   2.136   0.792
  271TF2     S2 5059   5.263   2.111   0.666
  271TF2     O3 5060   5.193   1.983   0.657
  271TF2     O4 5061   5.321   2.157   0.540
  271TF2     C2 5062   5.133   2.233   0.707
  271TF2     F4 5063   5.035   2.240   0.613
  271TF2     F5 5064   5.184   2.360   0.719
  271TF2     F6 5065   5.072   2.206   0.826
  272TF2     C1 5066   2.833   6.268   3.367
  272TF2     F1 5067   2.886   6.331   3.476
  272TF2     F2 5068   2.873   6.337   3.256
  272TF2     F3 5069   2.698   6.288   3.375
  272TF2     S1 5070   2.873   6.089   3.356
  272TF2     O1 5071   2.848   6.031   3.488
  272TF2     O2 5072   2.782   6.036   3.254
  272TF2     N1 5073   3.024   6.087   3.306
  272TF2     S2 5074   3.125   6.172   3.393
  272TF2     O3 5075   3.121   6.155   3.538
  272TF2     O4 5076   3.138   6.311   3.350
  272TF2     C2 5077   3.278   6.088   3.338
  272TF2     F4 5078   3.390   6.141   3.395
  272TF2     F5 5079   3.296   6.097   3.203
  272TF2     F6 5080   3.278   5.955   3.368
  273TF2     C1 5081   1.705   4.669   2.279
  273TF2     F1 5082   1.806   4.756   2.308
  273TF2     F2 5083   1.623   4.664   2.388
  273TF2     F3 5084   1.765   4.545   2.273
  273TF2     S1 5085   1.614   4.706   2.124
  273TF2     O1 5086   1.713   4.733   2.020
  273TF2     O2 5087   1.535   4.585   2.096
  273TF2     N1 5088   1.520   4.828   2.164
  273TF2     S2 5089   1.595   4.952   2.229
  273TF2     O3 5090   1.714   5.002   2.161
  273TF2     O4 5091   1.606   4.945   2.374
  273TF2     C2 5092   1.465   5.076   2.195
  273TF2     F4 5093   1.497   5.200   2.243
  273TF2     F5 5094   1.346   5.043   2.253
  273TF2     F6 5095   1.440   5.091   2.062
  274TF2     C1 5096   2.134   0.318   4.314
  274TF2     F1 5097   2.145   0.187   4.351
  274TF2     F2 5098   2.195   0.333   4.194
  274TF2     F3 5099   2.211   0.387   4.404
  274TF2     S1 5100   1.961   0.382   4.313
  274TF2     O1 5101   1.898   0.339   4.438
  274TF2     O2 5102   1.975   0.528   4.304
  274TF2     N1 5103   1.899   0.322   4.180
  274TF2     S2 5104   1.912   0.165   4.165
  274TF2     O3 5105   1.873   0.082   4.279
  274TF2     O4 5106   2.035   0.121   4.098
  274TF2     C2 5107   1.779   0.143   4.041
  274TF2     F4 5108   1.764   0.013   4.002
  274TF2     F5 5109   1.803   0.215   3.927
  274TF2     F6 5110   1.658   0.184   4.087
  275TF2     C1 5111   6.166   5.063   4.304
  275TF2     F1 5112   6.102   5.177   4.343
  275TF2     F2 5113   6.262   5.098   4.213
  275TF2     F3 5114   6.073   4.993   4.232
  275TF2     S1 5115   6.234   4.962   4.442
  275TF2     O1 5116   6.129   4.951   4.543
  275TF2     O2 5117   6.266   4.832   4.381
  275TF2     N1 5118   6.364   5.041   4.485
  275TF2     S2 5119   6.343   5.194   4.519
  275TF2     O3 5120   6.233   5.229   4.608
  275TF2     O4 5121   6.357   5.283   4.404
  275TF2     C2 5122   6.495   5.217   4.618
  275TF2     F4 5123   6.510   5.344   4.664
  275TF2     F5 5124   6.608   5.188   4.547
  275TF2     F6 5125   6.498   5.136   4.728
  276TF2     C1 5126   2.463   5.358   1.914
  276TF2     F1 5127   2.415   5.341   1.788
  276TF2     F2 5128   2.547   5.466   1.913
  276TF2     F3 5129   2.543   5.250   1.939
  276TF2     S1 5130   2.332   5.374   2.043
  276TF2     O1 5131   2.235   5.267   2.020
  276TF2     O2 5132   2.403   5.359   2.171
  276TF2     N1 5133   2.279   5.522   2.024
  276TF2     S2 5134   2.232   5.559   1.878
  276TF2     O3 5135   2.143   5.465   1.810
  276TF2     O4 5136   2.338   5.613   1.793
  276TF2     C2 5137   2.127   5.702   1.922
  276TF2     F4 5138   2.070   5.762   1.814
  276TF2     F5 5139   2.197   5.799   1.987
  276TF2     F6 5140   2.024   5.668   2.005
  277TF2     C1 5141   1.294   3.855   6.539
  277TF2     F1 5142   1.256   3.864   6.409
  277TF2     F2 5143   1.421   3.905   6.549
  277TF2     F3 5144   1.307   3.721   6.564
  277TF2     S1 5145   1.179   3.934   6.658
  277TF2     O1 5146   1.043   3.891   6.623
  277TF2     O2 5147   1.221   3.884   6.790
  277TF2     N1 5148   1.209   4.089   6.643
  277TF2     S2 5149   1.200   4.145   6.495
  277TF2     O3 5150   1.082   4.109   6.416
  277TF2     O4 5151   1.326   4.138   6.421
  277TF2     C2 5152   1.178   4.321   6.538
  277TF2     F4 5153   1.169   4.402   6.429
  277TF2     F5 5154   1.282   4.369   6.613
  277TF2     F6 5155   1.065   4.343   6.612
  278TF2     C1 5156   4.610   0.125   3.235
  278TF2     F1 5157   4.722   0.123   3.312
  278TF2     F2 5158   4.503   0.149   3.318
  278TF2     F3 5159   4.593  -0.004   3.191
  278TF2     S1 5160   4.616   0.243   3.094
  278TF2     O1 5161   4.745   0.224   3.028
  278TF2     O2 5162   4.503   0.205   3.008
  278TF2     N1 5163   4.593   0.384   3.162
  278TF2     S2 5164   4.691   0.418   3.282
  278TF2     O3 5165   4.834   0.397   3.261
  278TF2     O4 5166   4.642   0.375   3.413
  278TF2     C2 5167   4.668   0.600   3.279
  278TF2     F4 5168   4.740   0.664   3.375
  278TF2     F5 5169   4.538   0.636   3.297
  278TF2     F6 5170   4.706   0.655   3.159
  279TF2     C1 5171   3.418   5.199   4.405
  279TF2     F1 5172   3.391   5.270   4.293
  279TF2     F2 5173   3.480   5.083   4.367
  279TF2     F3 5174   3.295   5.160   4.453
  279TF2     S1 5175   3.513   5.291   4.533
  279TF2     O1 5176   3.450   5.422   4.548
  279TF2     O2 5177   3.501   5.209   4.655
  279TF2     N1 5178   3.661   5.290   4.477
  279TF2     S2 5179   3.678   5.345   4.330
  279TF2     O3 5180   3.613   5.472   4.297
  279TF2     O4 5181   3.664   5.243   4.225
  279TF2     C2 5182   3.856   5.383   4.339
  279TF2     F4 5183   3.906   5.433   4.222
  279TF2     F5 5184   3.931   5.273   4.369
  279TF2     F6 5185   3.885   5.475   4.435
  280TF2     C1 5186   1.921   3.558   5.039
  280TF2     F1 5187   1.815   3.628   4.991
  280TF2     F2 5188   1.942   3.452   4.956
  280TF2     F3 5189   1.878   3.503   5.157
  280TF2     S1 5190   2.073   3.659   5.064
  280TF2     O1 5191   2.033   3.781   5.135
  280TF2     O2 5192   2.161   3.574   5.146
  280TF2     N1 5193   2.130   3.678   4.918
  280TF2     S2 5194   2.028   3.738   4.813
  280TF2     O3 5195   1.952   3.856   4.852
  280TF2     O4 5196   1.949   3.637   4.742
  280TF2     C2 5197   2.151   3.797   4.692
  280TF2     F4 5198   2.094   3.855   4.582
  280TF2     F5 5199   2.230   3.696   4.645
  280TF2     F6 5200   2.236   3.890   4.745
  281TF2     C1 5201   6.767   2.634   4.515
  281TF2     F1 5202   6.784   2.592   4.386
  281TF2     F2 5203   6.885   2.687   4.557
  281TF2     F3 5204   6.750   2.519   4.588
  281TF2     S1 5205   6.626   2.750   4.539
  281TF2     O1 5206   6.510   2.693   4.469
  281TF2     O2 5207   6.606   2.755   4.684
  281TF2     N1 5208   6.680   2.888   4.483
  281TF2     S2 5209   6.738   2.882   4.336
  281TF2     O3 5210   6.656   2.817   4.233
  281TF2     O4 5211   6.880   2.851   4.328
  281TF2     C2 5212   6.724   3.061   4.300
  281TF2     F4 5213   6.770   3.094   4.175
  281TF2     F5 5214   6.796   3.137   4.388
  281TF2     F6 5215   6.596   3.107   4.307
  282TF2     C1 5216   1.538   6.525   5.483
  282TF2     F1 5217   1.523   6.585   5.362
  282TF2     F2 5218   1.629   6.425   5.469
  282TF2     F3 5219   1.419   6.463   5.508
  282TF2     S1 5220   1.583   6.641   5.619
  282TF2     O1 5221   1.493   6.756   5.609
  282TF2     O2 5222   1.561   6.564   5.742
  282TF2     N1 5223   1.737   6.670   5.595
  282TF2     S2 5224   1.774   6.721   5.450
  282TF2     O3 5225   1.694   6.830   5.394
  282TF2     O4 5226   1.804   6.614   5.355
  282TF2     C2 5227   1.934   6.797   5.492
  282TF2     F4 5228   1.998   6.851   5.384
  282TF2     F5 5229   2.021   6.706   5.546
  282TF2     F6 5230   1.923   6.897   5.584
  283TF2     C1 5231   4.024   2.106   3.425
  283TF2     F1 5232   4.146   2.046   3.419
  283TF2     F2 5233   3.986   2.109   3.556
  283TF2     F3 5234   3.937   2.019   3.365
  283TF2     S1 5235   4.017   2.272   3.347
  283TF2     O1 5236   4.082   2.261   3.216
  283TF2     O2 5237   3.873   2.303   3.336
  283TF2     N1 5238   4.088   2.367   3.452
  283TF2     S2 5239   4.232   2.321   3.497
  283TF2     O3 5240   4.327   2.283   3.393
  283TF2     O4 5241   4.233   2.232   3.614
  283TF2     C2 5242   4.290   2.483   3.559
  283TF2     F4 5243   4.417   2.478   3.610
  283TF2     F5 5244   4.210   2.531   3.659
  283TF2     F6 5245   4.291   2.579   3.462
  284TF2     C1 5246   4.620   1.890   2.167
  284TF2     F1 5247   4.579   1.897   2.296
  284TF2     F2 5248   4.646   1.759   2.139
  284TF2     F3 5249   4.741   1.953   2.163
  284TF2     S1 5250   4.503   1.965   2.045
  284TF2     O1 5251   4.464   2.096   2.098
  284TF2     O2 5252   4.580   1.976   1.921
  284TF2     N1 5253   4.387   1.857   2.033
  284TF2     S2 5254   4.322   1.813   2.169
  284TF2     O3 5255   4.281   1.918   2.262
  284TF2     O4 5256   4.387   1.698   2.233
  284TF2     C2 5257   4.166   1.747   2.099
  284TF2     F4 5258   4.082   1.696   2.194
  284TF2     F5 5259   4.188   1.646   2.010
  284TF2     F6 5260   4.095   1.842   2.032
  285TF2     C1 5261   3.147   4.526   0.717
  285TF2     F1 5262   3.261   4.454   0.732
  285TF2     F2 5263   3.170   4.622   0.622
  285TF2     F3 5264   3.132   4.595   0.834
  285TF2     S1 5265   2.998   4.425   0.678
  285TF2     O1 5266   2.997   4.312   0.772
  285TF2     O2 5267   2.885   4.516   0.700
  285TF2     N1 5268   3.015   4.389   0.525
  285TF2     S2 5269   3.153   4.321   0.487
  285TF2     O3 5270   3.198   4.209   0.570
  285TF2     O4 5271   3.259   4.416   0.451
  285TF2     C2 5272   3.099   4.246   0.330
  285TF2     F4 5273   3.198   4.178   0.266
  285TF2     F5 5274   3.053   4.339   0.241
  285TF2     F6 5275   2.996   4.157   0.347
  286TF2     C1 5276   4.817   3.972   2.230
  286TF2     F1 5277   4.683   3.978   2.253
  286TF2     F2 5278   4.837   3.890   2.122
  286TF2     F3 5279   4.870   3.905   2.337
  286TF2     S1 5280   4.897   4.136   2.207
  286TF2     O1 5281   4.850   4.223   2.315
  286TF2     O2 5282   5.042   4.109   2.217
  286TF2     N1 5283   4.856   4.179   2.060
  286TF2     S2 5284   4.701   4.176   2.030
  286TF2     O3 5285   4.613   4.241   2.127
  286TF2     O4 5286   4.652   4.048   1.980
  286TF2     C2 5287   4.704   4.288   1.885
  286TF2     F4 5288   4.581   4.307   1.830
  286TF2     F5 5289   4.784   4.240   1.785
  286TF2     F6 5290   4.753   4.412   1.916
  287TF2     C1 5291   3.124   3.006   0.563
  287TF2     F1 5292   3.040   3.094   0.503
  287TF2     F2 5293   3.218   3.078   0.631
  287TF2     F3 5294   3.191   2.944   0.461
  287TF2     S1 5295   3.040   2.883   0.672
  287TF2     O1 5296   2.926   2.830   0.597
  287TF2     O2 5297   3.142   2.781   0.699
  287TF2     N1 5298   3.005   2.966   0.802
  287TF2     S2 5299   2.923   3.099   0.778
  287TF2     O3 5300   2.806   3.092   0.691
  287TF2     O4 5301   3.007   3.217   0.755
  287TF2     C2 5302   2.857   3.117   0.947
  287TF2     F4 5303   2.780   3.229   0.963
  287TF2     F5 5304   2.956   3.126   1.041
  287TF2     F6 5305   2.779   3.012   0.984
  288TF2     C1 5306   0.713   5.015   0.319
  288TF2     F1 5307   0.763   4.989   0.195
  288TF2     F2 5308   0.749   5.142   0.354
  288TF2     F3 5309   0.782   4.933   0.404
  288TF2     S1 5310   0.531   4.988   0.334
  288TF2     O1 5311   0.501   4.859   0.273
  288TF2     O2 5312   0.505   4.988   0.479
  288TF2     N1 5313   0.468   5.115   0.264
  288TF2     S2 5314   0.519   5.143   0.117
  288TF2     O3 5315   0.520   5.030   0.023
  288TF2     O4 5316   0.638   5.228   0.109
  288TF2     C2 5317   0.379   5.248   0.064
  288TF2     F4 5318   0.393   5.293  -0.064
  288TF2     F5 5319   0.366   5.359   0.142
  288TF2     F6 5320   0.259   5.183   0.069
  289TF2     C1 5321   4.336   5.769   3.009
  289TF2     F1 5322   4.331   5.798   3.142
  289TF2     F2 5323   4.211   5.792   2.957
  289TF2     F3 5324   4.353   5.633   3.002
  289TF2     S1 5325   4.467   5.857   2.915
  289TF2     O1 5326   4.591   5.845   2.993
  289TF2     O2 5327   4.475   5.787   2.786
  289TF2     N1 5328   4.410   6.004   2.899
  289TF2     S2 5329   4.365   6.074   3.033
  289TF2     O3 5330   4.458   6.071   3.146
  289TF2     O4 5331   4.225   6.051   3.070
  289TF2     C2 5332   4.371   6.246   2.971
  289TF2     F4 5333   4.334   6.338   3.066
  289TF2     F5 5334   4.288   6.266   2.865
  289TF2     F6 5335   4.496   6.283   2.929
  290TF2     C1 5336   3.185   1.331   4.442
  290TF2     F1 5337   3.170   1.223   4.523
  290TF2     F2 5338   3.128   1.438   4.503
  290TF2     F3 5339   3.106   1.305   4.333
  290TF2     S1 5340   3.359   1.364   4.391
  290TF2     O1 5341   3.418   1.237   4.349
  290TF2     O2 5342   3.348   1.460   4.280
  290TF2     N1 5343   3.423   1.431   4.520
  290TF2     S2 5344   3.408   1.348   4.654
  290TF2     O3 5345   3.442   1.206   4.650
  290TF2     O4 5346   3.286   1.379   4.729
  290TF2     C2 5347   3.544   1.428   4.746
  290TF2     F4 5348   3.558   1.380   4.873
  290TF2     F5 5349   3.526   1.563   4.758
  290TF2     F6 5350   3.665   1.412   4.685
  291TF2     C1 5351   0.784   2.781   3.789
  291TF2     F1 5352   0.890   2.697   3.788
  291TF2     F2 5353   0.829   2.905   3.753
  291TF2     F3 5354   0.748   2.793   3.921
  291TF2     S1 5355   0.642   2.726   3.685
  291TF2     O1 5356   0.618   2.585   3.716
  291TF2     O2 5357   0.530   2.812   3.726
  291TF2     N1 5358   0.689   2.758   3.537
  291TF2     S2 5359   0.828   2.697   3.496
  291TF2     O3 5360   0.852   2.556   3.526
  291TF2     O4 5361   0.943   2.784   3.524
  291TF2     C2 5362   0.804   2.705   3.315
  291TF2     F4 5363   0.912   2.660   3.245
  291TF2     F5 5364   0.781   2.832   3.272
  291TF2     F6 5365   0.697   2.631   3.273
  292TF2     C1 5366   4.881   5.843   0.524
  292TF2     F1 5367   4.877   5.885   0.394
  292TF2     F2 5368   4.956   5.729   0.529
  292TF2     F3 5369   4.753   5.804   0.554
  292TF2     S1 5370   4.941   5.971   0.642
  292TF2     O1 5371   4.870   6.095   0.612
  292TF2     O2 5372   4.906   5.918   0.775
  292TF2     N1 5373   5.098   5.973   0.620
  292TF2     S2 5374   5.144   5.994   0.471
  292TF2     O3 5375   5.083   6.103   0.395
  292TF2     O4 5376   5.160   5.870   0.394
  292TF2     C2 5377   5.314   6.051   0.507
  292TF2     F4 5378   5.387   6.077   0.395
  292TF2     F5 5379   5.386   5.957   0.578
  292TF2     F6 5380   5.317   6.164   0.582
  293TF2     C1 5381   6.638   6.120   1.578
  293TF2     F1 5382   6.592   6.085   1.701
  293TF2     F2 5383   6.544   6.201   1.521
  293TF2     F3 5384   6.636   6.005   1.504
  293TF2     S1 5385   6.805   6.196   1.579
  293TF2     O1 5386   6.891   6.113   1.663
  293TF2     O2 5387   6.847   6.195   1.438
  293TF2     N1 5388   6.780   6.344   1.631
  293TF2     S2 5389   6.702   6.354   1.768
  293TF2     O3 5390   6.748   6.271   1.878
  293TF2     O4 5391   6.556   6.360   1.754
  293TF2     C2 5392   6.754   6.524   1.811
  293TF2     F4 5393   6.700   6.568   1.928
  293TF2     F5 5394   6.717   6.615   1.716
  293TF2     F6 5395   6.889   6.536   1.823
  294TF2     C1 5396   4.575   0.535   2.586
  294TF2     F1 5397   4.500   0.596   2.491
  294TF2     F2 5398   4.543   0.403   2.587
  294TF2     F3 5399   4.530   0.584   2.706
  294TF2     S1 5400   4.757   0.562   2.567
  294TF2     O1 5401   4.777   0.705   2.544
  294TF2     O2 5402   4.815   0.518   2.695
  294TF2     N1 5403   4.797   0.466   2.449
  294TF2     S2 5404   4.714   0.484   2.316
  294TF2     O3 5405   4.695   0.619   2.265
  294TF2     O4 5406   4.593   0.400   2.309
  294TF2     C2 5407   4.834   0.405   2.202
  294TF2     F4 5408   4.790   0.401   2.073
  294TF2     F5 5409   4.861   0.276   2.237
  294TF2     F6 5410   4.954   0.469   2.201
  295TF2     C1 5411   3.867   6.043   5.262
  295TF2     F1 5412   3.851   5.938   5.179
  295TF2     F2 5413   3.936   6.000   5.372
  295TF2     F3 5414   3.742   6.074   5.308
  295TF2     S1 5415   3.947   6.190   5.185
  295TF2     O1 5416   3.880   6.213   5.056
  295TF2     O2 5417   3.924   6.300   5.280
  295TF2     N1 5418   4.100   6.151   5.178
  295TF2     S2 5419   4.131   6.013   5.106
  295TF2     O3 5420   4.068   5.988   4.977
  295TF2     O4 5421   4.131   5.897   5.196
  295TF2     C2 5422   4.307   6.046   5.069
  295TF2     F4 5423   4.368   5.941   5.006
  295TF2     F5 5424   4.380   6.071   5.181
  295TF2     F6 5425   4.324   6.155   4.988
  296TF2     C1 5426   2.832   3.377   5.511
  296TF2     F1 5427   2.953   3.433   5.539
  296TF2     F2 5428   2.759   3.376   5.626
  296TF2     F3 5429   2.858   3.245   5.483
  296TF2     S1 5430   2.741   3.457   5.372
  296TF2     O1 5431   2.836   3.475   5.262
  296TF2     O2 5432   2.633   3.364   5.339
  296TF2     N1 5433   2.684   3.591   5.437
  296TF2     S2 5434   2.792   3.682   5.508
  296TF2     O3 5435   2.915   3.712   5.434
  296TF2     O4 5436   2.812   3.652   5.650
  296TF2     C2 5437   2.695   3.837   5.504
  296TF2     F4 5438   2.761   3.942   5.563
  296TF2     F5 5439   2.576   3.826   5.570
  296TF2     F6 5440   2.664   3.877   5.377
  297TF2     C1 5441   2.291   1.779   1.577
  297TF2     F1 5442   2.240   1.778   1.702
  297TF2     F2 5443   2.364   1.893   1.562
  297TF2     F3 5444   2.183   1.793   1.493
  297TF2     S1 5445   2.389   1.628   1.534
  297TF2     O1 5446   2.311   1.512   1.576
  297TF2     O2 5447   2.406   1.634   1.388
  297TF2     N1 5448   2.527   1.651   1.609
  297TF2     S2 5449   2.515   1.680   1.764
  297TF2     O3 5450   2.429   1.593   1.844
  297TF2     O4 5451   2.503   1.823   1.797
  297TF2     C2 5452   2.686   1.634   1.809
  297TF2     F4 5453   2.713   1.651   1.942
  297TF2     F5 5454   2.779   1.709   1.742
  297TF2     F6 5455   2.715   1.504   1.780
  298TF2     C1 5456   3.217   5.320   1.741
  298TF2     F1 5457   3.110   5.399   1.712
  298TF2     F2 5458   3.326   5.401   1.755
  298TF2     F3 5459   3.240   5.247   1.628
  298TF2     S1 5460   3.193   5.210   1.887
  298TF2     O1 5461   3.062   5.146   1.873
  298TF2     O2 5462   3.304   5.113   1.880
  298TF2     N1 5463   3.210   5.308   2.011
  298TF2     S2 5464   3.117   5.436   2.008
  298TF2     O3 5465   2.975   5.417   1.980
  298TF2     O4 5466   3.177   5.552   1.941
  298TF2     C2 5467   3.126   5.474   2.187
  298TF2     F4 5468   3.056   5.586   2.221
  298TF2     F5 5469   3.254   5.496   2.229
  298TF2     F6 5470   3.078   5.373   2.265
  299TF2     C1 5471   6.492   5.513   1.002
  299TF2     F1 5472   6.486   5.573   1.123
  299TF2     F2 5473   6.568   5.400   1.015
  299TF2     F3 5474   6.565   5.597   0.923
  299TF2     S1 5475   6.327   5.478   0.927
  299TF2     O1 5476   6.247   5.599   0.940
  299TF2     O2 5477   6.356   5.445   0.786
  299TF2     N1 5478   6.276   5.351   1.006
  299TF2     S2 5479   6.275   5.366   1.164
  299TF2     O3 5480   6.215   5.487   1.220
  299TF2     O4 5481   6.399   5.326   1.229
  299TF2     C2 5482   6.155   5.233   1.199
  299TF2     F4 5483   6.131   5.216   1.332
  299TF2     F5 5484   6.198   5.112   1.152
  299TF2     F6 5485   6.033   5.255   1.141
  300TF2     C1 5486   5.497   0.582   3.861
  300TF2     F1 5487   5.563   0.465   3.879
  300TF2     F2 5488   5.410   0.565   3.756
  300TF2     F3 5489   5.591   0.671   3.817
  300TF2     S1 5490   5.411   0.645   4.012
  300TF2     O1 5491   5.507   0.636   4.122
  300TF2     O2 5492   5.377   0.784   3.979
  300TF2     N1 5493   5.282   0.554   4.023
  300TF2     S2 5494   5.310   0.398   4.023
  300TF2     O3 5495   5.414   0.347   4.112
  300TF2     O4 5496   5.310   0.338   3.890
  300TF2     C2 5497   5.152   0.347   4.100
  300TF2     F4 5498   5.140   0.212   4.113
  300TF2     F5 5499   5.043   0.388   4.026
  300TF2     F6 5500   5.134   0.400   4.224
  301TF2     C1 5501   2.424   1.523   3.643
  301TF2     F1 5502   2.481   1.524   3.520
  301TF2     F2 5503   2.413   1.392   3.682
  301TF2     F3 5504   2.295   1.566   3.624
  301TF2     S1 5505   2.511   1.626   3.768
  301TF2     O1 5506   2.538   1.756   3.706
  301TF2     O2 5507   2.417   1.636   3.881
  301TF2     N1 5508   2.638   1.539   3.807
  301TF2     S2 5509   2.728   1.493   3.685
  301TF2     O3 5510   2.765   1.594   3.586
  301TF2     O4 5511   2.688   1.364   3.627
  301TF2     C2 5512   2.880   1.459   3.780
  301TF2     F4 5513   2.982   1.413   3.702
  301TF2     F5 5514   2.861   1.365   3.877
  301TF2     F6 5515   2.927   1.570   3.844
  302TF2     C1 5516   6.201   1.314   6.000
  302TF2     F1 5517   6.185   1.447   5.977
  302TF2     F2 5518   6.163   1.289   6.129
  302TF2     F3 5519   6.337   1.293   5.998
  302TF2     S1 5520   6.115   1.204   5.880
  302TF2     O1 5521   6.145   1.255   5.745
  302TF2     O2 5522   6.172   1.071   5.902
  302TF2     N1 5523   5.963   1.211   5.924
  302TF2     S2 5524   5.903   1.357   5.936
  302TF2     O3 5525   5.926   1.449   5.825
  302TF2     O4 5526   5.919   1.418   6.069
  302TF2     C2 5527   5.727   1.310   5.925
  302TF2     F4 5528   5.642   1.417   5.935
  302TF2     F5 5529   5.690   1.223   6.024
  302TF2     F6 5530   5.697   1.248   5.807
  303TF2     C1 5531   4.588   1.871   1.431
  303TF2     F1 5532   4.548   1.993   1.475
  303TF2     F2 5533   4.670   1.817   1.526
  303TF2     F3 5534   4.669   1.896   1.323
  303TF2     S1 5535   4.450   1.757   1.386
  303TF2     O1 5536   4.356   1.834   1.303
  303TF2     O2 5537   4.514   1.648   1.312
  303TF2     N1 5538   4.395   1.708   1.526
  303TF2     S2 5539   4.356   1.823   1.628
  303TF2     O3 5540   4.272   1.932   1.578
  303TF2     O4 5541   4.466   1.866   1.714
  303TF2     C2 5542   4.246   1.723   1.734
  303TF2     F4 5543   4.194   1.794   1.839
  303TF2     F5 5544   4.310   1.616   1.789
  303TF2     F6 5545   4.139   1.672   1.666
  304TF2     C1 5546   2.399   3.054   1.634
  304TF2     F1 5547   2.345   3.090   1.515
  304TF2     F2 5548   2.531   3.089   1.632
  304TF2     F3 5549   2.399   2.917   1.635
  304TF2     S1 5550   2.312   3.121   1.781
  304TF2     O1 5551   2.169   3.098   1.761
  304TF2     O2 5552   2.365   3.045   1.895
  304TF2     N1 5553   2.358   3.273   1.786
  304TF2     S2 5554   2.336   3.354   1.653
  304TF2     O3 5555   2.205   3.345   1.588
  304TF2     O4 5556   2.449   3.349   1.560
  304TF2     C2 5557   2.342   3.522   1.727
  304TF2     F4 5558   2.327   3.621   1.635
  304TF2     F5 5559   2.460   3.546   1.791
  304TF2     F6 5560   2.244   3.541   1.820
  305TF2     C1 5561   2.356   0.157   3.188
  305TF2     F1 5562   2.256   0.179   3.277
  305TF2     F2 5563   2.324   0.221   3.072
  305TF2     F3 5564   2.351   0.023   3.159
  305TF2     S1 5565   2.523   0.205   3.249
  305TF2     O1 5566   2.537   0.151   3.385
  305TF2     O2 5567   2.617   0.144   3.154
  305TF2     N1 5568   2.524   0.363   3.237
  305TF2     S2 5569   2.403   0.436   3.309
  305TF2     O3 5570   2.372   0.398   3.447
  305TF2     O4 5571   2.285   0.455   3.224
  305TF2     C2 5572   2.481   0.601   3.322
  305TF2     F4 5573   2.400   0.694   3.380
  305TF2     F5 5574   2.516   0.652   3.200
  305TF2     F6 5575   2.596   0.599   3.396
  306TF2     C1 5576   5.154   5.763   3.800
  306TF2     F1 5577   5.224   5.699   3.702
  306TF2     F2 5578   5.021   5.755   3.769
  306TF2     F3 5579   5.186   5.895   3.787
  306TF2     S1 5580   5.190   5.702   3.970
  306TF2     O1 5581   5.336   5.693   3.984
  306TF2     O2 5582   5.132   5.804   4.060
  306TF2     N1 5583   5.110   5.565   3.979
  306TF2     S2 5584   5.142   5.462   3.864
  306TF2     O3 5585   5.282   5.435   3.833
  306TF2     O4 5586   5.056   5.475   3.746
  306TF2     C2 5587   5.082   5.312   3.951
  306TF2     F4 5588   5.093   5.199   3.875
  306TF2     F5 5589   4.951   5.322   3.986
  306TF2     F6 5590   5.151   5.288   4.066
  307TF2     C1 5591   4.525   4.584   5.790
  307TF2     F1 5592   4.463   4.563   5.908
  307TF2     F2 5593   4.430   4.613   5.697
  307TF2     F3 5594   4.575   4.461   5.753
  307TF2     S1 5595   4.659   4.711   5.795
  307TF2     O1 5596   4.741   4.682   5.912
  307TF2     O2 5597   4.733   4.693   5.669
  307TF2     N1 5598   4.580   4.848   5.797
  307TF2     S2 5599   4.471   4.861   5.911
  307TF2     O3 5600   4.510   4.825   6.047
  307TF2     O4 5601   4.338   4.814   5.872
  307TF2     C2 5602   4.460   5.044   5.910
  307TF2     F4 5603   4.369   5.092   6.000
  307TF2     F5 5604   4.423   5.093   5.788
  307TF2     F6 5605   4.579   5.104   5.941
  308TF2     C1 5606   2.375   4.332   4.982
  308TF2     F1 5607   2.294   4.230   4.944
  308TF2     F2 5608   2.393   4.414   4.874
  308TF2     F3 5609   2.498   4.275   5.005
  308TF2     S1 5610   2.317   4.424   5.130
  308TF2     O1 5611   2.279   4.325   5.231
  308TF2     O2 5612   2.432   4.505   5.173
  308TF2     N1 5613   2.200   4.515   5.075
  308TF2     S2 5614   2.087   4.438   4.995
  308TF2     O3 5615   2.030   4.318   5.057
  308TF2     O4 5616   2.112   4.426   4.852
  308TF2     C2 5617   1.957   4.566   5.011
  308TF2     F4 5618   1.840   4.531   4.949
  308TF2     F5 5619   1.995   4.686   4.957
  308TF2     F6 5620   1.925   4.592   5.141
  309TF2     C1 5621   3.469   0.809   3.251
  309TF2     F1 5622   3.361   0.821   3.170
  309TF2     F2 5623   3.478   0.923   3.326
  309TF2     F3 5624   3.578   0.811   3.169
  309TF2     S1 5625   3.468   0.658   3.356
  309TF2     O1 5626   3.434   0.545   3.269
  309TF2     O2 5627   3.605   0.648   3.410
  309TF2     N1 5628   3.363   0.691   3.471
  309TF2     S2 5629   3.221   0.738   3.420
  309TF2     O3 5630   3.156   0.657   3.316
  309TF2     O4 5631   3.208   0.882   3.400
  309TF2     C2 5632   3.129   0.701   3.573
  309TF2     F4 5633   2.996   0.733   3.565
  309TF2     F5 5634   3.178   0.770   3.681
  309TF2     F6 5635   3.135   0.569   3.608
  310TF2     C1 5636   4.766   1.259   5.480
  310TF2     F1 5637   4.767   1.201   5.357
  310TF2     F2 5638   4.784   1.393   5.464
  310TF2     F3 5639   4.880   1.214   5.542
  310TF2     S1 5640   4.616   1.221   5.581
  310TF2     O1 5641   4.594   1.076   5.571
  310TF2     O2 5642   4.651   1.263   5.717
  310TF2     N1 5643   4.504   1.313   5.518
  310TF2     S2 5644   4.485   1.299   5.362
  310TF2     O3 5645   4.473   1.163   5.307
  310TF2     O4 5646   4.569   1.389   5.282
  310TF2     C2 5647   4.316   1.368   5.353
  310TF2     F4 5648   4.267   1.373   5.226
  310TF2     F5 5649   4.311   1.496   5.401
  310TF2     F6 5650   4.226   1.297   5.426
  311TF2     C1 5651   5.520   5.960   3.074
  311TF2     F1 5652   5.549   5.864   2.982
  311TF2     F2 5653   5.465   6.066   3.008
  311TF2     F3 5654   5.641   6.005   3.120
  311TF2     S1 5655   5.413   5.902   3.213
  311TF2     O1 5656   5.469   5.776   3.261
  311TF2     O2 5657   5.422   6.009   3.314
  311TF2     N1 5658   5.268   5.895   3.149
  311TF2     S2 5659   5.258   5.809   3.016
  311TF2     O3 5660   5.318   5.676   3.017
  311TF2     O4 5661   5.281   5.885   2.893
  311TF2     C2 5662   5.077   5.781   3.023
  311TF2     F4 5663   5.031   5.708   2.917
  311TF2     F5 5664   5.006   5.898   3.022
  311TF2     F6 5665   5.038   5.714   3.135
  312TF2     C1 5666   5.150   4.430   1.641
  312TF2     F1 5667   5.047   4.468   1.561
  312TF2     F2 5668   5.266   4.448   1.570
  312TF2     F3 5669   5.137   4.295   1.656
  312TF2     S1 5670   5.155   4.515   1.804
  312TF2     O1 5671   5.019   4.511   1.859
  312TF2     O2 5672   5.251   4.437   1.884
  312TF2     N1 5673   5.211   4.659   1.770
  312TF2     S2 5674   5.133   4.737   1.657
  312TF2     O3 5675   4.987   4.743   1.667
  312TF2     O4 5676   5.183   4.713   1.522
  312TF2     C2 5677   5.190   4.905   1.702
  312TF2     F4 5678   5.141   5.002   1.619
  312TF2     F5 5679   5.327   4.916   1.697
  312TF2     F6 5680   5.154   4.941   1.828
  313TF2     C1 5681   1.611   6.164   0.584
  313TF2     F1 5682   1.699   6.079   0.643
  313TF2     F2 5683   1.669   6.288   0.579
  313TF2     F3 5684   1.507   6.177   0.673
  313TF2     S1 5685   1.551   6.109   0.419
  313TF2     O1 5686   1.513   5.968   0.432
  313TF2     O2 5687   1.435   6.195   0.390
  313TF2     N1 5688   1.672   6.140   0.322
  313TF2     S2 5689   1.811   6.078   0.366
  313TF2     O3 5690   1.813   5.937   0.404
  313TF2     O4 5691   1.890   6.165   0.453
  313TF2     C2 5692   1.892   6.085   0.202
  313TF2     F4 5693   2.020   6.040   0.205
  313TF2     F5 5694   1.898   6.213   0.153
  313TF2     F6 5695   1.826   6.012   0.108
  314TF2     C1 5696   6.413   0.543   3.574
  314TF2     F1 5697   6.300   0.569   3.645
  314TF2     F2 5698   6.468   0.663   3.539
  314TF2     F3 5699   6.371   0.486   3.457
  314TF2     S1 5700   6.534   0.434   3.661
  314TF2     O1 5701   6.459   0.320   3.715
  314TF2     O2 5702   6.629   0.393   3.556
  314TF2     N1 5703   6.602   0.530   3.767
  314TF2     S2 5704   6.502   0.606   3.862
  314TF2     O3 5705   6.396   0.528   3.927
  314TF2     O4 5706   6.457   0.736   3.811
  314TF2     C2 5707   6.621   0.645   3.995
  314TF2     F4 5708   6.566   0.716   4.098
  314TF2     F5 5709   6.727   0.719   3.950
  314TF2     F6 5710   6.676   0.532   4.051
  315TF2     C1 5711   2.622   1.345   4.123
  315TF2     F1 5712   2.591   1.400   4.244
  315TF2     F2 5713   2.688   1.228   4.146
  315TF2     F3 5714   2.715   1.430   4.068
  315TF2     S1 5715   2.478   1.323   4.011
  315TF2     O1 5716   2.401   1.448   4.012
  315TF2     O2 5717   2.537   1.296   3.879
  315TF2     N1 5718   2.404   1.195   4.069
  315TF2     S2 5719   2.368   1.202   4.222
  315TF2     O3 5720   2.302   1.323   4.271
  315TF2     O4 5721   2.473   1.152   4.311
  315TF2     C2 5722   2.238   1.074   4.221
  315TF2     F4 5723   2.184   1.051   4.345
  315TF2     F5 5724   2.286   0.953   4.178
  315TF2     F6 5725   2.134   1.105   4.139
  316TF2     C1 5726   1.117   2.227   0.171
  316TF2     F1 5727   1.171   2.253   0.050
  316TF2     F2 5728   1.066   2.100   0.168
  316TF2     F3 5729   1.008   2.309   0.181
  316TF2     S1 5730   1.232   2.251   0.313
  316TF2     O1 5731   1.298   2.381   0.294
  316TF2     O2 5732   1.145   2.250   0.432
  316TF2     N1 5733   1.325   2.124   0.308
  316TF2     S2 5734   1.396   2.097   0.169
  316TF2     O3 5735   1.463   2.210   0.105
  316TF2     O4 5736   1.319   2.013   0.078
  316TF2     C2 5737   1.531   1.991   0.232
  316TF2     F4 5738   1.613   1.946   0.133
  316TF2     F5 5739   1.483   1.879   0.295
  316TF2     F6 5740   1.610   2.054   0.323
  317TF2     C1 5741   1.564   6.133   5.035
  317TF2     F1 5742   1.644   6.148   4.926
  317TF2     F2 5743   1.556   6.254   5.098
  317TF2     F3 5744   1.633   6.052   5.121
  317TF2     S1 5745   1.397   6.063   4.998
  317TF2     O1 5746   1.418   5.947   4.911
  317TF2     O2 5747   1.343   6.025   5.129
  317TF2     N1 5748   1.318   6.185   4.935
  317TF2     S2 5749   1.389   6.255   4.813
  317TF2     O3 5750   1.441   6.170   4.706
  317TF2     O4 5751   1.478   6.365   4.850
  317TF2     C2 5752   1.240   6.335   4.743
  317TF2     F4 5753   1.267   6.410   4.632
  317TF2     F5 5754   1.180   6.419   4.832
  317TF2     F6 5755   1.145   6.244   4.706
  318TF2     C1 5756   2.837   0.800   1.153
  318TF2     F1 5757   2.825   0.787   1.287
  318TF2     F2 5758   2.932   0.712   1.110
  318TF2     F3 5759   2.891   0.925   1.133
  318TF2     S1 5760   2.679   0.782   1.060
  318TF2     O1 5761   2.578   0.863   1.128
  318TF2     O2 5762   2.709   0.832   0.925
  318TF2     N1 5763   2.654   0.625   1.059
  318TF2     S2 5764   2.656   0.556   1.202
  318TF2     O3 5765   2.577   0.619   1.308
  318TF2     O4 5766   2.788   0.510   1.244
  318TF2     C2 5767   2.563   0.406   1.155
  318TF2     F4 5768   2.548   0.319   1.259
  318TF2     F5 5769   2.625   0.336   1.056
  318TF2     F6 5770   2.438   0.433   1.109
  319TF2     C1 5771   0.550   6.212   5.994
  319TF2     F1 5772   0.455   6.283   5.927
  319TF2     F2 5773   0.614   6.299   6.079
  319TF2     F3 5774   0.644   6.177   5.901
  319TF2     S1 5775   0.486   6.064   6.082
  319TF2     O1 5776   0.400   5.992   5.988
  319TF2     O2 5777   0.605   5.987   6.119
  319TF2     N1 5778   0.414   6.124   6.210
  319TF2     S2 5779   0.306   6.235   6.181
  319TF2     O3 5780   0.206   6.208   6.077
  319TF2     O4 5781   0.360   6.372   6.178
  319TF2     C2 5782   0.215   6.222   6.339
  319TF2     F4 5783   0.112   6.310   6.349
  319TF2     F5 5784   0.296   6.246   6.447
  319TF2     F6 5785   0.162   6.098   6.359
  320TF2     C1 5786   1.100   4.949   2.678
  320TF2     F1 5787   1.141   4.983   2.803
  320TF2     F2 5788   1.000   4.857   2.691
  320TF2     F3 5789   1.205   4.880   2.623
  320TF2     S1 5790   1.051   5.091   2.572
  320TF2     O1 5791   1.155   5.193   2.586
  320TF2     O2 5792   1.043   5.036   2.436
  320TF2     N1 5793   0.907   5.130   2.627
  320TF2     S2 5794   0.899   5.158   2.782
  320TF2     O3 5795   1.000   5.246   2.841
  320TF2     O4 5796   0.870   5.039   2.863
  320TF2     C2 5797   0.745   5.255   2.781
  320TF2     F4 5798   0.706   5.295   2.905
  320TF2     F5 5799   0.640   5.185   2.728
  320TF2     F6 5800   0.755   5.369   2.706
  321TF2     C1 5801   1.919   2.774   4.457
  321TF2     F1 5802   1.786   2.791   4.438
  321TF2     F2 5803   1.984   2.848   4.363
  321TF2     F3 5804   1.944   2.643   4.423
  321TF2     S1 5805   1.978   2.810   4.628
  321TF2     O1 5806   1.886   2.743   4.720
  321TF2     O2 5807   2.114   2.754   4.634
  321TF2     N1 5808   1.980   2.969   4.634
  321TF2     S2 5809   1.844   3.039   4.593
  321TF2     O3 5810   1.721   2.989   4.654
  321TF2     O4 5811   1.833   3.070   4.451
  321TF2     C2 5812   1.877   3.199   4.675
  321TF2     F4 5813   1.776   3.290   4.658
  321TF2     F5 5814   1.991   3.259   4.628
  321TF2     F6 5815   1.895   3.187   4.810
  322TF2     C1 5816   5.090   2.148   3.819
  322TF2     F1 5817   5.178   2.217   3.742
  322TF2     F2 5818   4.986   2.108   3.740
  322TF2     F3 5819   5.036   2.241   3.905
  322TF2     S1 5820   5.164   2.007   3.912
  322TF2     O1 5821   5.287   2.056   3.974
  322TF2     O2 5822   5.062   1.970   4.011
  322TF2     N1 5823   5.181   1.895   3.802
  322TF2     S2 5824   5.261   1.939   3.673
  322TF2     O3 5825   5.388   2.009   3.692
  322TF2     O4 5826   5.178   1.995   3.567
  322TF2     C2 5827   5.307   1.771   3.616
  322TF2     F4 5828   5.379   1.772   3.499
  322TF2     F5 5829   5.198   1.693   3.593
  322TF2     F6 5830   5.383   1.704   3.707
  323TF2     C1 5831   5.364   0.351   1.372
  323TF2     F1 5832   5.425   0.432   1.463
  323TF2     F2 5833   5.263   0.424   1.314
  323TF2     F3 5834   5.300   0.254   1.445
  323TF2     S1 5835   5.477   0.277   1.248
  323TF2     O1 5836   5.592   0.223   1.321
  323TF2     O2 5837   5.398   0.171   1.183
  323TF2     N1 5838   5.508   0.397   1.148
  323TF2     S2 5839   5.561   0.529   1.216
  323TF2     O3 5840   5.670   0.516   1.313
  323TF2     O4 5841   5.456   0.622   1.257
  323TF2     C2 5842   5.637   0.602   1.067
  323TF2     F4 5843   5.693   0.724   1.090
  323TF2     F5 5844   5.546   0.620   0.967
  323TF2     F6 5845   5.736   0.524   1.014
  324TF2     C1 5846   2.754   6.210   2.805
  324TF2     F1 5847   2.861   6.145   2.754
  324TF2     F2 5848   2.797   6.286   2.910
  324TF2     F3 5849   2.675   6.113   2.861
  324TF2     S1 5850   2.659   6.309   2.682
  324TF2     O1 5851   2.638   6.225   2.565
  324TF2     O2 5852   2.533   6.343   2.750
  324TF2     N1 5853   2.749   6.438   2.660
  324TF2     S2 5854   2.899   6.410   2.621
  324TF2     O3 5855   2.924   6.314   2.513
  324TF2     O4 5856   2.990   6.396   2.735
  324TF2     C2 5857   2.935   6.573   2.548
  324TF2     F4 5858   3.063   6.585   2.503
  324TF2     F5 5859   2.917   6.675   2.638
  324TF2     F6 5860   2.855   6.602   2.441
  325TF2     C1 5861   6.466   5.036   0.540
  325TF2     F1 5862   6.389   5.062   0.431
  325TF2     F2 5863   6.596   5.038   0.501
  325TF2     F3 5864   6.439   4.906   0.573
  325TF2     S1 5865   6.435   5.148   0.683
  325TF2     O1 5866   6.290   5.156   0.701
  325TF2     O2 5867   6.501   5.082   0.797
  325TF2     N1 5868   6.508   5.282   0.643
  325TF2     S2 5869   6.467   5.342   0.502
  325TF2     O3 5870   6.324   5.353   0.472
  325TF2     O4 5871   6.548   5.293   0.390
  325TF2     C2 5872   6.523   5.513   0.532
  325TF2     F4 5873   6.504   5.595   0.425
  325TF2     F5 5874   6.656   5.519   0.562
  325TF2     F6 5875   6.459   5.571   0.638
  326TF2     C1 5876   0.218   2.047   5.275
  326TF2     F1 5877   0.157   2.094   5.164
  326TF2     F2 5878   0.343   2.101   5.280
  326TF2     F3 5879   0.237   1.913   5.253
  326TF2     S1 5880   0.125   2.077   5.431
  326TF2     O1 5881  -0.014   2.036   5.407
  326TF2     O2 5882   0.191   1.991   5.531
  326TF2     N1 5883   0.148   2.230   5.462
  326TF2     S2 5884   0.112   2.328   5.343
  326TF2     O3 5885  -0.017   2.311   5.278
  326TF2     O4 5886   0.223   2.355   5.251
  326TF2     C2 5887   0.095   2.480   5.444
  326TF2     F4 5888   0.064   2.590   5.369
  326TF2     F5 5889   0.209   2.510   5.512
  326TF2     F6 5890  -0.003   2.469   5.538
  327TF2     C1 5891   1.011   1.758   3.421
  327TF2     F1 5892   0.967   1.630   3.425
  327TF2     F2 5893   0.995   1.812   3.545
  327TF2     F3 5894   0.921   1.824   3.341
  327TF2     S1 5895   1.182   1.778   3.357
  327TF2     O1 5896   1.193   1.696   3.235
  327TF2     O2 5897   1.196   1.922   3.329
  327TF2     N1 5898   1.273   1.734   3.479
  327TF2     S2 5899   1.241   1.591   3.539
  327TF2     O3 5900   1.227   1.480   3.445
  327TF2     O4 5901   1.141   1.592   3.646
  327TF2     C2 5902   1.401   1.564   3.621
  327TF2     F4 5903   1.407   1.445   3.688
  327TF2     F5 5904   1.429   1.661   3.714
  327TF2     F6 5905   1.506   1.564   3.534
  328TF2     C1 5906   1.675   5.940   1.728
  328TF2     F1 5907   1.599   5.874   1.637
  328TF2     F2 5908   1.606   6.052   1.767
  328TF2     F3 5909   1.783   5.987   1.659
  328TF2     S1 5910   1.727   5.838   1.872
  328TF2     O1 5911   1.778   5.711   1.819
  328TF2     O2 5912   1.832   5.917   1.938
  328TF2     N1 5913   1.597   5.829   1.962
  328TF2     S2 5914   1.468   5.777   1.887
  328TF2     O3 5915   1.480   5.656   1.806
  328TF2     O4 5916   1.388   5.883   1.825
  328TF2     C2 5917   1.374   5.726   2.036
  328TF2     F4 5918   1.251   5.676   2.007
  328TF2     F5 5919   1.354   5.830   2.122
  328TF2     F6 5920   1.439   5.629   2.108
  329TF2     C1 5921   1.548   1.787   3.313
  329TF2     F1 5922   1.428   1.722   3.314
  329TF2     F2 5923   1.633   1.717   3.234
  329TF2     F3 5924   1.597   1.774   3.441
  329TF2     S1 5925   1.537   1.964   3.265
  329TF2     O1 5926   1.427   2.024   3.340
  329TF2     O2 5927   1.667   2.021   3.303
  329TF2     N1 5928   1.520   1.959   3.107
  329TF2     S2 5929   1.400   1.869   3.056
  329TF2     O3 5930   1.270   1.887   3.119
  329TF2     O4 5931   1.437   1.730   3.031
  329TF2     C2 5932   1.384   1.946   2.890
  329TF2     F4 5933   1.287   1.887   2.814
  329TF2     F5 5934   1.500   1.937   2.818
  329TF2     F6 5935   1.354   2.079   2.897
  330TF2     C1 5936   0.107   4.665   4.356
  330TF2     F1 5937  -0.014   4.637   4.302
  330TF2     F2 5938   0.193   4.564   4.321
  330TF2     F3 5939   0.090   4.654   4.491
  330TF2     S1 5940   0.174   4.831   4.311
  330TF2     O1 5941   0.066   4.928   4.330
  330TF2     O2 5942   0.286   4.853   4.405
  330TF2     N1 5943   0.226   4.812   4.163
  330TF2     S2 5944   0.119   4.754   4.061
  330TF2     O3 5945  -0.014   4.815   4.060
  330TF2     O4 5946   0.118   4.608   4.053
  330TF2     C2 5947   0.200   4.811   3.908
  330TF2     F4 5948   0.132   4.775   3.795
  330TF2     F5 5949   0.327   4.762   3.894
  330TF2     F6 5950   0.212   4.947   3.903
  331TF2     C1 5951   5.597   6.162   4.544
  331TF2     F1 5952   5.729   6.194   4.548
  331TF2     F2 5953   5.579   6.048   4.617
  331TF2     F3 5954   5.572   6.126   4.414
  331TF2     S1 5955   5.484   6.297   4.598
  331TF2     O1 5956   5.528   6.420   4.530
  331TF2     O2 5957   5.350   6.254   4.554
  331TF2     N1 5958   5.497   6.297   4.756
  331TF2     S2 5959   5.644   6.307   4.811
  331TF2     O3 5960   5.731   6.412   4.756
  331TF2     O4 5961   5.711   6.178   4.830
  331TF2     C2 5962   5.601   6.366   4.979
  331TF2     F4 5963   5.711   6.384   5.059
  331TF2     F5 5964   5.520   6.277   5.045
  331TF2     F6 5965   5.534   6.485   4.978
  332TF2     C1 5966   3.084   4.086   3.731
  332TF2     F1 5967   3.163   4.099   3.840
  332TF2     F2 5968   2.978   4.171   3.746
  332TF2     F3 5969   3.031   3.960   3.738
  332TF2     S1 5970   3.171   4.112   3.570
  332TF2     O1 5971   3.295   4.034   3.575
  332TF2     O2 5972   3.078   4.062   3.468
  332TF2     N1 5973   3.188   4.269   3.561
  332TF2     S2 5974   3.258   4.337   3.686
  332TF2     O3 5975   3.382   4.277   3.735
  332TF2     O4 5976   3.165   4.378   3.791
  332TF2     C2 5977   3.309   4.491   3.602
  332TF2     F4 5978   3.373   4.578   3.686
  332TF2     F5 5979   3.203   4.560   3.551
  332TF2     F6 5980   3.394   4.468   3.498
  333TF2     C1 5981   2.450   2.313   2.646
  333TF2     F1 5982   2.416   2.184   2.670
  333TF2     F2 5983   2.427   2.339   2.514
  333TF2     F3 5984   2.586   2.319   2.661
  333TF2     S1 5985   2.366   2.435   2.756
  333TF2     O1 5986   2.378   2.384   2.893
  333TF2     O2 5987   2.441   2.560   2.737
  333TF2     N1 5988   2.220   2.444   2.697
  333TF2     S2 5989   2.144   2.306   2.681
  333TF2     O3 5990   2.146   2.215   2.796
  333TF2     O4 5991   2.165   2.241   2.552
  333TF2     C2 5992   1.974   2.373   2.676
  333TF2     F4 5993   1.880   2.277   2.659
  333TF2     F5 5994   1.957   2.462   2.572
  333TF2     F6 5995   1.941   2.442   2.789
  334TF2     C1 5996   1.738   2.916   4.992
  334TF2     F1 5997   1.797   3.029   5.040
  334TF2     F2 5998   1.800   2.809   5.050
  334TF2     F3 5999   1.773   2.910   4.859
  334TF2     S1 6000   1.555   2.911   5.013
  334TF2     O1 6001   1.503   3.041   4.969
  334TF2     O2 6002   1.510   2.801   4.927
  334TF2     N1 6003   1.536   2.877   5.166
  334TF2     S2 6004   1.612   2.973   5.267
  334TF2     O3 6005   1.598   3.117   5.247
  334TF2     O4 6006   1.748   2.929   5.300
  334TF2     C2 6007   1.511   2.935   5.415
  334TF2     F4 6008   1.553   3.002   5.526
  334TF2     F5 6009   1.514   2.802   5.447
  334TF2     F6 6010   1.379   2.967   5.398
  335TF2     C1 6011   3.161   1.196   5.877
  335TF2     F1 6012   3.114   1.266   5.983
  335TF2     F2 6013   3.283   1.248   5.843
  335TF2     F3 6014   3.078   1.228   5.773
  335TF2     S1 6015   3.168   1.014   5.903
  335TF2     O1 6016   3.040   0.974   5.961
  335TF2     O2 6017   3.188   0.957   5.769
  335TF2     N1 6018   3.296   0.994   5.994
  335TF2     S2 6019   3.298   1.080   6.127
  335TF2     O3 6020   3.178   1.080   6.210
  335TF2     O4 6021   3.360   1.212   6.112
  335TF2     C2 6022   3.420   0.978   6.218
  335TF2     F4 6023   3.448   1.028   6.342
  335TF2     F5 6024   3.539   0.969   6.152
  335TF2     F6 6025   3.377   0.850   6.237
  336TF2     C1 6026   4.918   1.544   1.271
  336TF2     F1 6027   4.908   1.543   1.406
  336TF2     F2 6028   5.020   1.629   1.238
  336TF2     F3 6029   4.805   1.606   1.226
  336TF2     S1 6030   4.938   1.378   1.195
  336TF2     O1 6031   4.838   1.290   1.256
  336TF2     O2 6032   4.914   1.399   1.051
  336TF2     N1 6033   5.090   1.341   1.223
  336TF2     S2 6034   5.134   1.350   1.375
  336TF2     O3 6035   5.048   1.286   1.474
  336TF2     O4 6036   5.184   1.482   1.415
  336TF2     C2 6037   5.282   1.243   1.362
  336TF2     F4 6038   5.348   1.230   1.480
  336TF2     F5 6039   5.372   1.291   1.272
  336TF2     F6 6040   5.251   1.116   1.321
  337TF2     C1 6041   1.976   1.617   0.769
  337TF2     F1 6042   1.863   1.692   0.774
  337TF2     F2 6043   2.067   1.671   0.855
  337TF2     F3 6044   2.028   1.638   0.644
  337TF2     S1 6045   1.949   1.437   0.800
  337TF2     O1 6046   1.835   1.396   0.719
  337TF2     O2 6047   2.074   1.373   0.757
  337TF2     N1 6048   1.930   1.429   0.957
  337TF2     S2 6049   1.819   1.524   1.017
  337TF2     O3 6050   1.688   1.524   0.951
  337TF2     O4 6051   1.868   1.656   1.055
  337TF2     C2 6052   1.794   1.434   1.174
  337TF2     F4 6053   1.701   1.493   1.255
  337TF2     F5 6054   1.909   1.425   1.247
  337TF2     F6 6055   1.752   1.305   1.155
  338TF2     C1 6056   3.429   6.734   1.613
  338TF2     F1 6057   3.365   6.791   1.508
  338TF2     F2 6058   3.457   6.833   1.703
  338TF2     F3 6059   3.551   6.694   1.564
  338TF2     S1 6060   3.340   6.593   1.691
  338TF2     O1 6061   3.294   6.506   1.582
  338TF2     O2 6062   3.439   6.528   1.777
  338TF2     N1 6063   3.226   6.663   1.776
  338TF2     S2 6064   3.134   6.764   1.696
  338TF2     O3 6065   3.079   6.719   1.569
  338TF2     O4 6066   3.184   6.902   1.695
  338TF2     C2 6067   2.993   6.763   1.812
  338TF2     F4 6068   2.892   6.846   1.773
  338TF2     F5 6069   3.029   6.804   1.938
  338TF2     F6 6070   2.938   6.639   1.827
  339TF2     C1 6071   6.241   2.817   4.864
  339TF2     F1 6072   6.196   2.726   4.954
  339TF2     F2 6073   6.144   2.835   4.770
  339TF2     F3 6074   6.345   2.756   4.798
  339TF2     S1 6075   6.296   2.976   4.939
  339TF2     O1 6076   6.382   2.943   5.053
  339TF2     O2 6077   6.370   3.045   4.832
  339TF2     N1 6078   6.160   3.051   4.973
  339TF2     S2 6079   6.058   2.968   5.060
  339TF2     O3 6080   6.109   2.902   5.180
  339TF2     O4 6081   5.965   2.886   4.982
  339TF2     C2 6082   5.960   3.110   5.121
  339TF2     F4 6083   5.857   3.072   5.202
  339TF2     F5 6084   5.905   3.182   5.019
  339TF2     F6 6085   6.035   3.198   5.193
  340TF2     C1 6086   2.366   4.547   1.338
  340TF2     F1 6087   2.261   4.607   1.275
  340TF2     F2 6088   2.429   4.467   1.248
  340TF2     F3 6089   2.309   4.462   1.429
  340TF2     S1 6090   2.482   4.665   1.420
  340TF2     O1 6091   2.401   4.761   1.495
  340TF2     O2 6092   2.565   4.580   1.507
  340TF2     N1 6093   2.567   4.724   1.299
  340TF2     S2 6094   2.481   4.786   1.182
  340TF2     O3 6095   2.375   4.879   1.217
  340TF2     O4 6096   2.445   4.691   1.077
  340TF2     C2 6097   2.614   4.890   1.110
  340TF2     F4 6098   2.573   4.959   1.000
  340TF2     F5 6099   2.722   4.816   1.071
  340TF2     F6 6100   2.661   4.983   1.198
  341TF2     C1 6101   0.784   4.722   3.821
  341TF2     F1 6102   0.759   4.719   3.954
  341TF2     F2 6103   0.900   4.792   3.801
  341TF2     F3 6104   0.685   4.800   3.766
  341TF2     S1 6105   0.789   4.556   3.741
  341TF2     O1 6106   0.672   4.482   3.788
  341TF2     O2 6107   0.784   4.583   3.597
  341TF2     N1 6108   0.931   4.498   3.784
  341TF2     S2 6109   0.958   4.498   3.940
  341TF2     O3 6110   0.854   4.444   4.027
  341TF2     O4 6111   1.021   4.620   3.989
  341TF2     C2 6112   1.091   4.372   3.939
  341TF2     F4 6113   1.142   4.347   4.063
  341TF2     F5 6114   1.196   4.408   3.860
  341TF2     F6 6115   1.048   4.251   3.891
  342TF2     C1 6116   3.937   6.526   2.284
  342TF2     F1 6117   3.821   6.539   2.216
  342TF2     F2 6118   3.910   6.461   2.401
  342TF2     F3 6119   3.973   6.653   2.320
  342TF2     S1 6120   4.072   6.444   2.189
  342TF2     O1 6121   4.076   6.507   2.056
  342TF2     O2 6122   4.194   6.470   2.266
  342TF2     N1 6123   4.033   6.290   2.192
  342TF2     S2 6124   3.887   6.257   2.142
  342TF2     O3 6125   3.843   6.317   2.015
  342TF2     O4 6126   3.785   6.260   2.247
  342TF2     C2 6127   3.914   6.080   2.105
  342TF2     F4 6128   3.802   6.017   2.060
  342TF2     F5 6129   3.956   6.011   2.216
  342TF2     F6 6130   4.011   6.061   2.011
  343TF2     C1 6131   1.741   1.203   0.300
  343TF2     F1 6132   1.865   1.230   0.349
  343TF2     F2 6133   1.749   1.203   0.164
  343TF2     F3 6134   1.664   1.311   0.332
  343TF2     S1 6135   1.667   1.047   0.365
  343TF2     O1 6136   1.686   1.048   0.510
  343TF2     O2 6137   1.525   1.055   0.327
  343TF2     N1 6138   1.743   0.933   0.285
  343TF2     S2 6139   1.900   0.939   0.292
  343TF2     O3 6140   1.962   0.956   0.424
  343TF2     O4 6141   1.962   1.019   0.187
  343TF2     C2 6142   1.932   0.765   0.247
  343TF2     F4 6143   2.065   0.735   0.241
  343TF2     F5 6144   1.880   0.734   0.124
  343TF2     F6 6145   1.876   0.677   0.335
  344TF2     C1 6146   4.670   4.557   3.048
  344TF2     F1 6147   4.616   4.516   3.165
  344TF2     F2 6148   4.805   4.542   3.057
  344TF2     F3 6149   4.649   4.692   3.043
  344TF2     S1 6150   4.600   4.474   2.899
  344TF2     O1 6151   4.455   4.476   2.912
  344TF2     O2 6152   4.647   4.555   2.785
  344TF2     N1 6153   4.669   4.331   2.900
  344TF2     S2 6154   4.653   4.250   3.035
  344TF2     O3 6155   4.519   4.241   3.093
  344TF2     O4 6156   4.759   4.274   3.133
  344TF2     C2 6157   4.686   4.084   2.966
  344TF2     F4 6158   4.683   3.985   3.060
  344TF2     F5 6159   4.810   4.076   2.907
  344TF2     F6 6160   4.597   4.048   2.869
  345TF2     C1 6161   5.178   0.548   1.722
  345TF2     F1 6162   5.078   0.574   1.633
  345TF2     F2 6163   5.256   0.449   1.669
  345TF2     F3 6164   5.117   0.491   1.831
  345TF2     S1 6165   5.277   0.695   1.770
  345TF2     O1 6166   5.183   0.802   1.803
  345TF2     O2 6167   5.355   0.652   1.888
  345TF2     N1 6168   5.371   0.720   1.645
  345TF2     S2 6169   5.296   0.734   1.507
  345TF2     O3 6170   5.181   0.823   1.500
  345TF2     O4 6171   5.278   0.607   1.436
  345TF2     C2 6172   5.429   0.821   1.417
  345TF2     F4 6173   5.398   0.847   1.287
  345TF2     F5 6174   5.546   0.749   1.414
  345TF2     F6 6175   5.461   0.941   1.474
  346TF2     C1 6176   4.903   5.525   5.695
  346TF2     F1 6177   4.777   5.476   5.689
  346TF2     F2 6178   4.902   5.652   5.644
  346TF2     F3 6179   4.975   5.451   5.605
  346TF2     S1 6180   4.979   5.518   5.863
  346TF2     O1 6181   4.954   5.385   5.917
  346TF2     O2 6182   5.123   5.543   5.840
  346TF2     N1 6183   4.911   5.639   5.940
  346TF2     S2 6184   4.753   5.638   5.939
  346TF2     O3 6185   4.685   5.513   5.973
  346TF2     O4 6186   4.694   5.710   5.826
  346TF2     C2 6187   4.729   5.747   6.084
  346TF2     F4 6188   4.597   5.771   6.111
  346TF2     F5 6189   4.787   5.869   6.067
  346TF2     F6 6190   4.783   5.695   6.198
  347TF2     C1 6191   6.524   3.508   3.614
  347TF2     F1 6192   6.531   3.642   3.590
  347TF2     F2 6193   6.641   3.453   3.570
  347TF2     F3 6194   6.428   3.461   3.529
  347TF2     S1 6195   6.488   3.463   3.788
  347TF2     O1 6196   6.375   3.546   3.832
  347TF2     O2 6197   6.453   3.320   3.784
  347TF2     N1 6198   6.625   3.487   3.863
  347TF2     S2 6199   6.688   3.631   3.844
  347TF2     O3 6200   6.601   3.747   3.863
  347TF2     O4 6201   6.778   3.642   3.728
  347TF2     C2 6202   6.797   3.629   3.990
  347TF2     F4 6203   6.872   3.742   4.003
  347TF2     F5 6204   6.886   3.525   3.987
  347TF2     F6 6205   6.728   3.614   4.107
  348TF2     C1 6206   5.878   4.260   4.988
  348TF2     F1 6207   5.847   4.197   5.104
  348TF2     F2 6208   5.980   4.347   5.013
  348TF2     F3 6209   5.770   4.339   4.959
  348TF2     S1 6210   5.916   4.147   4.848
  348TF2     O1 6211   5.811   4.044   4.845
  348TF2     O2 6212   5.913   4.233   4.728
  348TF2     N1 6213   6.063   4.096   4.879
  348TF2     S2 6214   6.082   4.033   5.022
  348TF2     O3 6215   5.985   3.933   5.067
  348TF2     O4 6216   6.121   4.129   5.126
  348TF2     C2 6217   6.234   3.938   4.985
  348TF2     F4 6218   6.283   3.870   5.093
  348TF2     F5 6219   6.336   4.019   4.942
  348TF2     F6 6220   6.216   3.846   4.886
  349TF2     C1 6221   1.524   0.671   2.645
  349TF2     F1 6222   1.551   0.788   2.709
  349TF2     F2 6223   1.598   0.668   2.530
  349TF2     F3 6224   1.393   0.683   2.604
  349TF2     S1 6225   1.548   0.520   2.747
  349TF2     O1 6226   1.483   0.545   2.877
  349TF2     O2 6227   1.482   0.413   2.672
  349TF2     N1 6228   1.705   0.501   2.750
  349TF2     S2 6229   1.787   0.627   2.798
  349TF2     O3 6230   1.744   0.694   2.920
  349TF2     O4 6231   1.825   0.718   2.690
  349TF2     C2 6232   1.940   0.539   2.843
  349TF2     F4 6233   2.039   0.622   2.889
  349TF2     F5 6234   1.994   0.470   2.738
  349TF2     F6 6235   1.920   0.446   2.942
  350TF2     C1 6236   0.807   6.640   1.953
  350TF2     F1 6237   0.728   6.653   2.062
  350TF2     F2 6238   0.936   6.625   1.996
  350TF2     F3 6239   0.804   6.762   1.891
  350TF2     S1 6240   0.757   6.505   1.838
  350TF2     O1 6241   0.613   6.517   1.817
  350TF2     O2 6242   0.833   6.531   1.714
  350TF2     N1 6243   0.807   6.373   1.910
  350TF2     S2 6244   0.756   6.355   2.059
  350TF2     O3 6245   0.614   6.376   2.085
  350TF2     O4 6246   0.845   6.414   2.160
  350TF2     C2 6247   0.782   6.175   2.070
  350TF2     F4 6248   0.749   6.124   2.192
  350TF2     F5 6249   0.912   6.140   2.048
  350TF2     F6 6250   0.708   6.105   1.979
  351TF2     C1 6251   3.891   2.410   6.693
  351TF2     F1 6252   3.866   2.405   6.826
  351TF2     F2 6253   3.856   2.290   6.639
  351TF2     F3 6254   4.028   2.416   6.682
  351TF2     S1 6255   3.812   2.552   6.606
  351TF2     O1 6256   3.837   2.672   6.686
  351TF2     O2 6257   3.878   2.557   6.475
  351TF2     N1 6258   3.660   2.508   6.593
  351TF2     S2 6259   3.590   2.465   6.728
  351TF2     O3 6260   3.606   2.554   6.843
  351TF2     O4 6261   3.603   2.323   6.761
  351TF2     C2 6262   3.417   2.488   6.673
  351TF2     F4 6263   3.326   2.456   6.769
  351TF2     F5 6264   3.387   2.410   6.565
  351TF2     F6 6265   3.391   2.616   6.635
  352TF2     C1 6266   1.567   3.802   1.972
  352TF2     F1 6267   1.686   3.787   1.909
  352TF2     F2 6268   1.581   3.755   2.100
  352TF2     F3 6269   1.482   3.713   1.910
  352TF2     S1 6270   1.499   3.973   1.967
  352TF2     O1 6271   1.511   4.021   1.829
  352TF2     O2 6272   1.359   3.959   2.010
  352TF2     N1 6273   1.585   4.051   2.076
  352TF2     S2 6274   1.742   4.041   2.057
  352TF2     O3 6275   1.796   4.066   1.924
  352TF2     O4 6276   1.803   3.927   2.126
  352TF2     C2 6277   1.786   4.188   2.156
  352TF2     F4 6278   1.920   4.209   2.163
  352TF2     F5 6279   1.741   4.178   2.285
  352TF2     F6 6280   1.731   4.303   2.106
  353TF2     C1 6281   0.114   5.563   5.110
  353TF2     F1 6282   0.223   5.637   5.142
  353TF2     F2 6283   0.036   5.637   5.026
  353TF2     F3 6284   0.041   5.554   5.226
  353TF2     S1 6285   0.152   5.397   5.042
  353TF2     O1 6286   0.253   5.337   5.129
  353TF2     O2 6287   0.024   5.324   5.047
  353TF2     N1 6288   0.197   5.427   4.893
  353TF2     S2 6289   0.313   5.533   4.877
  353TF2     O3 6290   0.431   5.517   4.962
  353TF2     O4 6291   0.266   5.671   4.865
  353TF2     C2 6292   0.366   5.484   4.710
  353TF2     F4 6293   0.469   5.560   4.662
  353TF2     F5 6294   0.265   5.494   4.618
  353TF2     F6 6295   0.409   5.354   4.704
  354TF2     C1 6296   5.469   2.199   6.221
  354TF2     F1 6297   5.359   2.138   6.169
  354TF2     F2 6298   5.558   2.218   6.119
  354TF2     F3 6299   5.527   2.107   6.303
  354TF2     S1 6300   5.433   2.355   6.311
  354TF2     O1 6301   5.320   2.329   6.401
  354TF2     O2 6302   5.556   2.386   6.385
  354TF2     N1 6303   5.407   2.461   6.196
  354TF2     S2 6304   5.297   2.419   6.090
  354TF2     O3 6305   5.170   2.369   6.141
  354TF2     O4 6306   5.350   2.344   5.976
  354TF2     C2 6307   5.262   2.587   6.027
  354TF2     F4 6308   5.168   2.587   5.927
  354TF2     F5 6309   5.373   2.647   5.975
  354TF2     F6 6310   5.215   2.671   6.124
  355TF2     C1 6311   4.878   5.805   2.286
  355TF2     F1 6312   4.861   5.735   2.171
  355TF2     F2 6313   4.849   5.936   2.259
  355TF2     F3 6314   5.012   5.802   2.311
  355TF2     S1 6315   4.781   5.741   2.429
  355TF2     O1 6316   4.802   5.596   2.434
  355TF2     O2 6317   4.838   5.809   2.546
  355TF2     N1 6318   4.633   5.790   2.400
  355TF2     S2 6319   4.576   5.750   2.258
  355TF2     O3 6320   4.591   5.611   2.216
  355TF2     O4 6321   4.602   5.848   2.153
  355TF2     C2 6322   4.399   5.769   2.299
  355TF2     F4 6323   4.317   5.743   2.194
  355TF2     F5 6324   4.369   5.895   2.341
  355TF2     F6 6325   4.359   5.685   2.400
  356TF2     C1 6326   2.337   6.168   1.322
  356TF2     F1 6327   2.365   6.150   1.454
  356TF2     F2 6328   2.216   6.229   1.313
  356TF2     F3 6329   2.318   6.042   1.272
  356TF2     S1 6330   2.469   6.257   1.229
  356TF2     O1 6331   2.597   6.196   1.266
  356TF2     O2 6332   2.436   6.236   1.088
  356TF2     N1 6333   2.449   6.408   1.271
  356TF2     S2 6334   2.448   6.435   1.427
  356TF2     O3 6335   2.555   6.376   1.507
  356TF2     O4 6336   2.315   6.426   1.489
  356TF2     C2 6337   2.487   6.614   1.420
  356TF2     F4 6338   2.492   6.672   1.543
  356TF2     F5 6339   2.394   6.684   1.348
  356TF2     F6 6340   2.607   6.639   1.360
  357TF2     C1 6341   6.141   0.602   0.127
  357TF2     F1 6342   6.159   0.564   0.256
  357TF2     F2 6343   6.238   0.541   0.052
  357TF2     F3 6344   6.173   0.735   0.124
  357TF2     S1 6345   5.972   0.573   0.061
  357TF2     O1 6346   5.877   0.622   0.161
  357TF2     O2 6347   5.967   0.650  -0.064
  357TF2     N1 6348   5.969   0.417   0.033
  357TF2     S2 6349   6.009   0.325   0.155
  357TF2     O3 6350   5.946   0.353   0.284
  357TF2     O4 6351   6.153   0.296   0.164
  357TF2     C2 6352   5.931   0.171   0.096
  357TF2     F4 6353   5.949   0.066   0.181
  357TF2     F5 6354   5.981   0.132  -0.025
  357TF2     F6 6355   5.796   0.184   0.079
  358TF2     C1 6356   1.162   2.345   3.734
  358TF2     F1 6357   1.098   2.229   3.766
  358TF2     F2 6358   1.266   2.314   3.652
  358TF2     F3 6359   1.220   2.387   3.851
  358TF2     S1 6360   1.053   2.475   3.662
  358TF2     O1 6361   0.934   2.483   3.746
  358TF2     O2 6362   1.133   2.598   3.668
  358TF2     N1 6363   1.031   2.427   3.513
  358TF2     S2 6364   0.976   2.279   3.497
  358TF2     O3 6365   0.862   2.240   3.580
  358TF2     O4 6366   1.081   2.177   3.488
  358TF2     C2 6367   0.910   2.297   3.328
  358TF2     F4 6368   0.855   2.182   3.280
  358TF2     F5 6369   1.006   2.334   3.238
  358TF2     F6 6370   0.812   2.392   3.320
  359TF2     C1 6371   3.678   2.363   1.591
  359TF2     F1 6372   3.595   2.401   1.692
  359TF2     F2 6373   3.804   2.350   1.642
  359TF2     F3 6374   3.684   2.472   1.507
  359TF2     S1 6375   3.624   2.213   1.499
  359TF2     O1 6376   3.481   2.229   1.470
  359TF2     O2 6377   3.706   2.211   1.378
  359TF2     N1 6378   3.662   2.094   1.597
  359TF2     S2 6379   3.605   2.107   1.744
  359TF2     O3 6380   3.463   2.139   1.759
  359TF2     O4 6381   3.693   2.178   1.837
  359TF2     C2 6382   3.618   1.930   1.789
  359TF2     F4 6383   3.578   1.905   1.917
  359TF2     F5 6384   3.747   1.884   1.780
  359TF2     F6 6385   3.544   1.849   1.708
  360TF2     C1 6386   2.312   5.113   4.836
  360TF2     F1 6387   2.382   5.151   4.726
  360TF2     F2 6388   2.222   5.018   4.798
  360TF2     F3 6389   2.237   5.222   4.871
  360TF2     S1 6390   2.417   5.057   4.977
  360TF2     O1 6391   2.525   5.155   4.993
  360TF2     O2 6392   2.327   5.054   5.092
  360TF2     N1 6393   2.463   4.911   4.934
  360TF2     S2 6394   2.531   4.901   4.792
  360TF2     O3 6395   2.637   4.996   4.760
  360TF2     O4 6396   2.437   4.877   4.682
  360TF2     C2 6397   2.616   4.741   4.819
  360TF2     F4 6398   2.686   4.699   4.710
  360TF2     F5 6399   2.529   4.641   4.850
  360TF2     F6 6400   2.705   4.747   4.922
  361TF2     C1 6401   4.482   6.490   6.375
  361TF2     F1 6402   4.586   6.573   6.348
  361TF2     F2 6403   4.397   6.493   6.268
  361TF2     F3 6404   4.413   6.550   6.477
  361TF2     S1 6405   4.531   6.318   6.420
  361TF2     O1 6406   4.639   6.328   6.519
  361TF2     O2 6407   4.409   6.258   6.476
  361TF2     N1 6408   4.570   6.252   6.281
  361TF2     S2 6409   4.677   6.332   6.196
  361TF2     O3 6410   4.798   6.376   6.265
  361TF2     O4 6411   4.620   6.431   6.105
  361TF2     C2 6412   4.730   6.193   6.090
  361TF2     F4 6413   4.825   6.229   5.999
  361TF2     F5 6414   4.626   6.140   6.018
  361TF2     F6 6415   4.783   6.089   6.162
  362TF2     C1 6416   2.753   5.097   5.981
  362TF2     F1 6417   2.693   5.135   5.865
  362TF2     F2 6418   2.875   5.044   5.949
  362TF2     F3 6419   2.679   4.991   6.027
  362TF2     S1 6420   2.766   5.230   6.107
  362TF2     O1 6421   2.634   5.295   6.115
  362TF2     O2 6422   2.801   5.160   6.232
  362TF2     N1 6423   2.885   5.320   6.055
  362TF2     S2 6424   2.871   5.371   5.907
  362TF2     O3 6425   2.743   5.431   5.867
  362TF2     O4 6426   2.928   5.281   5.806
  362TF2     C2 6427   2.987   5.512   5.919
  362TF2     F4 6428   3.002   5.580   5.802
  362TF2     F5 6429   3.113   5.471   5.955
  362TF2     F6 6430   2.949   5.603   6.013
  363TF2     C1 6431   6.639   4.230   5.085
  363TF2     F1 6432   6.562   4.267   4.980
  363TF2     F2 6433   6.724   4.333   5.113
  363TF2     F3 6434   6.720   4.129   5.038
  363TF2     S1 6435   6.545   4.175   5.233
  363TF2     O1 6436   6.441   4.082   5.187
  363TF2     O2 6437   6.644   4.110   5.320
  363TF2     N1 6438   6.493   4.311   5.297
  363TF2     S2 6439   6.413   4.405   5.198
  363TF2     O3 6440   6.307   4.345   5.118
  363TF2     O4 6441   6.497   4.501   5.125
  363TF2     C2 6442   6.327   4.504   5.326
  363TF2     F4 6443   6.247   4.601   5.273
  363TF2     F5 6444   6.414   4.567   5.410
  363TF2     F6 6445   6.246   4.428   5.405
  364TF2     C1 6446   3.985   3.419   1.663
  364TF2     F1 6447   3.902   3.428   1.556
  364TF2     F2 6448   3.976   3.293   1.713
  364TF2     F3 6449   3.930   3.501   1.758
  364TF2     S1 6450   4.160   3.467   1.628
  364TF2     O1 6451   4.156   3.593   1.553
  364TF2     O2 6452   4.222   3.483   1.760
  364TF2     N1 6453   4.218   3.342   1.550
  364TF2     S2 6454   4.135   3.296   1.424
  364TF2     O3 6455   4.096   3.399   1.328
  364TF2     O4 6456   4.031   3.198   1.453
  364TF2     C2 6457   4.269   3.203   1.342
  364TF2     F4 6458   4.230   3.145   1.225
  364TF2     F5 6459   4.317   3.102   1.420
  364TF2     F6 6460   4.377   3.281   1.311
  365TF2     C1 6461   0.816   3.059   6.161
  365TF2     F1 6462   0.784   2.929   6.140
  365TF2     F2 6463   0.866   3.070   6.287
  365TF2     F3 6464   0.697   3.127   6.164
  365TF2     S1 6465   0.930   3.131   6.035
  365TF2     O1 6466   0.878   3.093   5.903
  365TF2     O2 6467   0.924   3.276   6.057
  365TF2     N1 6468   1.071   3.072   6.074
  365TF2     S2 6469   1.077   2.914   6.087
  365TF2     O3 6470   1.019   2.835   5.978
  365TF2     O4 6471   1.047   2.864   6.221
  365TF2     C2 6472   1.258   2.896   6.067
  365TF2     F4 6473   1.300   2.767   6.076
  365TF2     F5 6474   1.327   2.965   6.162
  365TF2     F6 6475   1.302   2.943   5.947
  366TF2     C1 6476   3.138   5.271   2.620
  366TF2     F1 6477   3.208   5.224   2.727
  366TF2     F2 6478   3.194   5.220   2.507
  366TF2     F3 6479   3.163   5.405   2.616
  366TF2     S1 6480   2.956   5.238   2.628
  366TF2     O1 6481   2.912   5.275   2.762
  366TF2     O2 6482   2.898   5.325   2.524
  366TF2     N1 6483   2.944   5.085   2.590
  366TF2     S2 6484   3.033   4.987   2.677
  366TF2     O3 6485   3.029   5.002   2.822
  366TF2     O4 6486   3.167   4.964   2.622
  366TF2     C2 6487   2.939   4.834   2.642
  366TF2     F4 6488   2.992   4.724   2.702
  366TF2     F5 6489   2.934   4.806   2.508
  366TF2     F6 6490   2.809   4.842   2.683
  367TF2     C1 6491   2.148   3.575   0.562
  367TF2     F1 6492   2.135   3.552   0.696
  367TF2     F2 6493   2.282   3.581   0.534
  367TF2     F3 6494   2.101   3.702   0.542
  367TF2     S1 6495   2.060   3.453   0.456
  367TF2     O1 6496   1.925   3.437   0.510
  367TF2     O2 6497   2.059   3.514   0.322
  367TF2     N1 6498   2.153   3.324   0.460
  367TF2     S2 6499   2.188   3.272   0.605
  367TF2     O3 6500   2.078   3.257   0.701
  367TF2     O4 6501   2.309   3.331   0.663
  367TF2     C2 6502   2.234   3.102   0.558
  367TF2     F4 6503   2.274   3.026   0.664
  367TF2     F5 6504   2.337   3.099   0.468
  367TF2     F6 6505   2.131   3.034   0.498
  368TF2     C1 6506   1.677   4.180   5.917
  368TF2     F1 6507   1.552   4.176   5.971
  368TF2     F2 6508   1.695   4.064   5.847
  368TF2     F3 6509   1.763   4.171   6.024
  368TF2     S1 6510   1.712   4.329   5.816
  368TF2     O1 6511   1.666   4.445   5.892
  368TF2     O2 6512   1.858   4.329   5.796
  368TF2     N1 6513   1.635   4.301   5.680
  368TF2     S2 6514   1.482   4.265   5.695
  368TF2     O3 6515   1.400   4.351   5.781
  368TF2     O4 6516   1.455   4.122   5.711
  368TF2     C2 6517   1.432   4.306   5.524
  368TF2     F4 6518   1.299   4.283   5.501
  368TF2     F5 6519   1.500   4.232   5.431
  368TF2     F6 6520   1.455   4.436   5.492
  369TF2     C1 6521   0.468   6.027   0.765
  369TF2     F1 6522   0.432   5.931   0.675
  369TF2     F2 6523   0.442   5.978   0.890
  369TF2     F3 6524   0.380   6.130   0.747
  369TF2     S1 6525   0.642   6.085   0.749
  369TF2     O1 6526   0.666   6.111   0.607
  369TF2     O2 6527   0.649   6.207   0.830
  369TF2     N1 6528   0.728   5.968   0.813
  369TF2     S2 6529   0.700   5.824   0.753
  369TF2     O3 6530   0.698   5.810   0.608
  369TF2     O4 6531   0.593   5.750   0.821
  369TF2     C2 6532   0.856   5.746   0.808
  369TF2     F4 6533   0.865   5.614   0.773
  369TF2     F5 6534   0.872   5.751   0.943
  369TF2     F6 6535   0.966   5.807   0.755
  370TF2     C1 6536   6.785   4.535   3.607
  370TF2     F1 6537   6.886   4.560   3.695
  370TF2     F2 6538   6.675   4.499   3.680
  370TF2     F3 6539   6.822   4.421   3.540
  370TF2     S1 6540   6.749   4.673   3.491
  370TF2     O1 6541   6.878   4.718   3.437
  370TF2     O2 6542   6.664   4.613   3.387
  370TF2     N1 6543   6.670   4.778   3.579
  370TF2     S2 6544   6.742   4.821   3.713
  370TF2     O3 6545   6.883   4.860   3.705
  370TF2     O4 6546   6.710   4.737   3.828
  370TF2     C2 6547   6.650   4.977   3.739
  370TF2     F4 6548   6.687   5.042   3.853
  370TF2     F5 6549   6.515   4.956   3.749
  370TF2     F6 6550   6.667   5.065   3.636
  371TF2     C1 6551   1.517   4.216   4.755
  371TF2     F1 6552   1.415   4.193   4.668
  371TF2     F2 6553   1.462   4.255   4.874
  371TF2     F3 6554   1.582   4.327   4.707
  371TF2     S1 6555   1.633   4.075   4.776
  371TF2     O1 6556   1.667   4.026   4.642
  371TF2     O2 6557   1.749   4.132   4.846
  371TF2     N1 6558   1.554   3.974   4.869
  371TF2     S2 6559   1.410   3.934   4.817
  371TF2     O3 6560   1.397   3.893   4.678
  371TF2     O4 6561   1.303   4.022   4.864
  371TF2     C2 6562   1.392   3.780   4.915
  371TF2     F4 6563   1.272   3.718   4.895
  371TF2     F5 6564   1.402   3.803   5.049
  371TF2     F6 6565   1.489   3.688   4.885
  372TF2     C1 6566   2.825   2.738   5.807
  372TF2     F1 6567   2.890   2.703   5.692
  372TF2     F2 6568   2.692   2.749   5.777
  372TF2     F3 6569   2.867   2.865   5.836
  372TF2     S1 6570   2.855   2.624   5.948
  372TF2     O1 6571   2.999   2.601   5.955
  372TF2     O2 6572   2.804   2.697   6.066
  372TF2     N1 6573   2.765   2.498   5.915
  372TF2     S2 6574   2.789   2.434   5.773
  372TF2     O3 6575   2.927   2.408   5.732
  372TF2     O4 6576   2.705   2.490   5.667
  372TF2     C2 6577   2.718   2.269   5.809
  372TF2     F4 6578   2.721   2.185   5.702
  372TF2     F5 6579   2.588   2.277   5.848
  372TF2     F6 6580   2.784   2.205   5.910
  373TF2     C1 6581   3.776   5.141   6.108
  373TF2     F1 6582   3.839   5.255   6.068
  373TF2     F2 6583   3.672   5.118   6.023
  373TF2     F3 6584   3.718   5.172   6.228
  373TF2     S1 6585   3.887   4.995   6.124
  373TF2     O1 6586   4.006   5.038   6.198
  373TF2     O2 6587   3.808   4.896   6.199
  373TF2     N1 6588   3.911   4.949   5.974
  373TF2     S2 6589   3.964   5.062   5.877
  373TF2     O3 6590   4.077   5.143   5.923
  373TF2     O4 6591   3.858   5.139   5.811
  373TF2     C2 6592   4.032   4.951   5.749
  373TF2     F4 6593   4.087   5.019   5.644
  373TF2     F5 6594   3.937   4.869   5.696
  373TF2     F6 6595   4.131   4.870   5.797
  374TF2     C1 6596   2.984   2.073   4.851
  374TF2     F1 6597   2.927   2.144   4.751
  374TF2     F2 6598   3.068   1.981   4.795
  374TF2     F3 6599   2.882   1.999   4.907
  374TF2     S1 6600   3.069   2.175   4.979
  374TF2     O1 6601   2.978   2.284   5.015
  374TF2     O2 6602   3.093   2.083   5.091
  374TF2     N1 6603   3.204   2.218   4.909
  374TF2     S2 6604   3.188   2.288   4.768
  374TF2     O3 6605   3.090   2.396   4.756
  374TF2     O4 6606   3.188   2.195   4.655
  374TF2     C2 6607   3.351   2.370   4.764
  374TF2     F4 6608   3.373   2.440   4.649
  374TF2     F5 6609   3.454   2.280   4.773
  374TF2     F6 6610   3.368   2.458   4.867
  375TF2     C1 6611   6.578   4.061   4.437
  375TF2     F1 6612   6.565   4.166   4.351
  375TF2     F2 6613   6.625   4.109   4.555
  375TF2     F3 6614   6.680   3.985   4.385
  375TF2     S1 6615   6.425   3.961   4.458
  375TF2     O1 6616   6.371   3.935   4.325
  375TF2     O2 6617   6.470   3.838   4.525
  375TF2     N1 6618   6.335   4.049   4.554
  375TF2     S2 6619   6.311   4.198   4.506
  375TF2     O3 6620   6.269   4.218   4.367
  375TF2     O4 6621   6.412   4.293   4.552
  375TF2     C2 6622   6.162   4.231   4.606
  375TF2     F4 6623   6.113   4.357   4.589
  375TF2     F5 6624   6.185   4.216   4.740
  375TF2     F6 6625   6.059   4.146   4.576
  376TF2     C1 6626   5.077   2.304   1.188
  376TF2     F1 6627   5.022   2.268   1.069
  376TF2     F2 6628   5.178   2.393   1.162
  376TF2     F3 6629   5.140   2.191   1.235
  376TF2     S1 6630   4.957   2.369   1.311
  376TF2     O1 6631   4.843   2.278   1.313
  376TF2     O2 6632   5.030   2.369   1.439
  376TF2     N1 6633   4.928   2.517   1.261
  376TF2     S2 6634   4.881   2.528   1.110
  376TF2     O3 6635   4.775   2.439   1.065
  376TF2     O4 6636   4.991   2.544   1.015
  376TF2     C2 6637   4.803   2.693   1.123
  376TF2     F4 6638   4.752   2.738   1.005
  376TF2     F5 6639   4.891   2.789   1.165
  376TF2     F6 6640   4.700   2.696   1.213
  377TF2     C1 6641   4.911   4.031   4.755
  377TF2     F1 6642   4.958   3.991   4.634
  377TF2     F2 6643   4.775   4.024   4.752
  377TF2     F3 6644   4.941   4.165   4.764
  377TF2     S1 6645   4.981   3.938   4.898
  377TF2     O1 6646   5.126   3.932   4.879
  377TF2     O2 6647   4.944   4.018   5.016
  377TF2     N1 6648   4.905   3.800   4.895
  377TF2     S2 6649   4.910   3.723   4.757
  377TF2     O3 6650   5.041   3.709   4.693
  377TF2     O4 6651   4.802   3.757   4.665
  377TF2     C2 6652   4.870   3.557   4.821
  377TF2     F4 6653   4.863   3.462   4.723
  377TF2     F5 6654   4.748   3.555   4.885
  377TF2     F6 6655   4.961   3.512   4.913
  378TF2     C1 6656   2.983   3.605   1.165
  378TF2     F1 6657   3.115   3.591   1.193
  378TF2     F2 6658   2.963   3.734   1.125
  378TF2     F3 6659   2.919   3.594   1.286
  378TF2     S1 6660   2.917   3.484   1.044
  378TF2     O1 6661   2.966   3.351   1.084
  378TF2     O2 6662   2.771   3.495   1.054
  378TF2     N1 6663   2.970   3.537   0.904
  378TF2     S2 6664   3.126   3.562   0.896
  378TF2     O3 6665   3.214   3.455   0.944
  378TF2     O4 6666   3.168   3.696   0.936
  378TF2     C2 6667   3.140   3.557   0.714
  378TF2     F4 6668   3.268   3.578   0.670
  378TF2     F5 6669   3.063   3.653   0.654
  378TF2     F6 6670   3.100   3.438   0.661
  379TF2     C1 6671   6.057   4.440   0.844
  379TF2     F1 6672   6.090   4.566   0.806
  379TF2     F2 6673   6.085   4.429   0.977
  379TF2     F3 6674   6.147   4.358   0.781
  379TF2     S1 6675   5.884   4.390   0.805
  379TF2     O1 6676   5.858   4.429   0.666
  379TF2     O2 6677   5.881   4.245   0.824
  379TF2     N1 6678   5.798   4.465   0.915
  379TF2     S2 6679   5.822   4.621   0.925
  379TF2     O3 6680   5.820   4.698   0.801
  379TF2     O4 6681   5.928   4.659   1.018
  379TF2     C2 6682   5.665   4.662   1.010
  379TF2     F4 6683   5.653   4.796   1.037
  379TF2     F5 6684   5.652   4.597   1.129
  379TF2     F6 6685   5.555   4.628   0.936
  380TF2     C1 6686   6.326   3.724   0.472
  380TF2     F1 6687   6.390   3.782   0.577
  380TF2     F2 6688   6.216   3.660   0.521
  380TF2     F3 6689   6.410   3.624   0.429
  380TF2     S1 6690   6.285   3.839   0.334
  380TF2     O1 6691   6.405   3.918   0.306
  380TF2     O2 6692   6.249   3.751   0.222
  380TF2     N1 6693   6.160   3.919   0.388
  380TF2     S2 6694   6.180   3.988   0.529
  380TF2     O3 6695   6.301   4.067   0.549
  380TF2     O4 6696   6.144   3.904   0.643
  380TF2     C2 6697   6.045   4.111   0.514
  380TF2     F4 6698   6.032   4.190   0.624
  380TF2     F5 6699   5.923   4.051   0.495
  380TF2     F6 6700   6.062   4.195   0.408
  381TF2     C1 6701   5.388   5.765   5.416
  381TF2     F1 6702   5.312   5.820   5.318
  381TF2     F2 6703   5.481   5.857   5.454
  381TF2     F3 6704   5.458   5.664   5.356
  381TF2     S1 6705   5.291   5.701   5.560
  381TF2     O1 6706   5.180   5.623   5.506
  381TF2     O2 6707   5.386   5.618   5.635
  381TF2     N1 6708   5.252   5.832   5.640
  381TF2     S2 6709   5.179   5.944   5.556
  381TF2     O3 6710   5.067   5.902   5.471
  381TF2     O4 6711   5.269   6.040   5.492
  381TF2     C2 6712   5.103   6.033   5.696
  381TF2     F4 6713   5.031   6.142   5.657
  381TF2     F5 6714   5.197   6.079   5.784
  381TF2     F6 6715   5.018   5.954   5.768
  382TF2     C1 6716   6.086   6.685   3.442
  382TF2     F1 6717   6.024   6.580   3.383
  382TF2     F2 6718   6.141   6.641   3.559
  382TF2     F3 6719   5.986   6.770   3.479
  382TF2     S1 6720   6.210   6.770   3.336
  382TF2     O1 6721   6.147   6.791   3.205
  382TF2     O2 6722   6.238   6.897   3.405
  382TF2     N1 6723   6.335   6.673   3.338
  382TF2     S2 6724   6.305   6.523   3.298
  382TF2     O3 6725   6.227   6.500   3.176
  382TF2     O4 6726   6.267   6.437   3.410
  382TF2     C2 6727   6.476   6.476   3.255
  382TF2     F4 6728   6.487   6.346   3.216
  382TF2     F5 6729   6.562   6.492   3.360
  382TF2     F6 6730   6.527   6.551   3.153
  383TF2     C1 6731   4.561   5.936   3.568
  383TF2     F1 6732   4.636   6.042   3.526
  383TF2     F2 6733   4.449   5.931   3.491
  383TF2     F3 6734   4.518   5.970   3.693
  383TF2     S1 6735   4.652   5.776   3.570
  383TF2     O1 6736   4.781   5.800   3.635
  383TF2     O2 6737   4.566   5.685   3.648
  383TF2     N1 6738   4.657   5.733   3.418
  383TF2     S2 6739   4.717   5.842   3.320
  383TF2     O3 6740   4.844   5.905   3.358
  383TF2     O4 6741   4.618   5.934   3.265
  383TF2     C2 6742   4.760   5.728   3.183
  383TF2     F4 6743   4.815   5.792   3.076
  383TF2     F5 6744   4.651   5.661   3.136
  383TF2     F6 6745   4.850   5.632   3.220
  384TF2     C1 6746   3.419   1.321   6.577
  384TF2     F1 6747   3.306   1.258   6.617
  384TF2     F2 6748   3.417   1.327   6.440
  384TF2     F3 6749   3.522   1.236   6.608
  384TF2     S1 6750   3.445   1.487   6.653
  384TF2     O1 6751   3.421   1.472   6.797
  384TF2     O2 6752   3.584   1.521   6.623
  384TF2     N1 6753   3.344   1.580   6.575
  384TF2     S2 6754   3.194   1.531   6.573
  384TF2     O3 6755   3.134   1.490   6.700
  384TF2     O4 6756   3.161   1.443   6.460
  384TF2     C2 6757   3.117   1.692   6.534
  384TF2     F4 6758   2.981   1.685   6.522
  384TF2     F5 6759   3.163   1.744   6.416
  384TF2     F6 6760   3.142   1.787   6.629
  385TF2     C1 6761   2.571   5.850   1.739
  385TF2     F1 6762   2.581   5.719   1.703
  385TF2     F2 6763   2.674   5.878   1.824
  385TF2     F3 6764   2.458   5.858   1.816
  385TF2     S1 6765   2.563   5.967   1.598
  385TF2     O1 6766   2.465   5.914   1.502
  385TF2     O2 6767   2.519   6.095   1.657
  385TF2     N1 6768   2.712   5.975   1.547
  385TF2     S2 6769   2.780   5.836   1.514
  385TF2     O3 6770   2.704   5.742   1.430
  385TF2     O4 6771   2.848   5.774   1.627
  385TF2     C2 6772   2.913   5.900   1.406
  385TF2     F4 6773   2.995   5.802   1.359
  385TF2     F5 6774   2.993   5.990   1.470
  385TF2     F6 6775   2.864   5.965   1.296
  386TF2     C1 6776   0.906   2.602   4.817
  386TF2     F1 6777   0.813   2.612   4.719
  386TF2     F2 6778   0.857   2.668   4.927
  386TF2     F3 6779   1.013   2.677   4.775
  386TF2     S1 6780   0.958   2.430   4.858
  386TF2     O1 6781   0.985   2.362   4.731
  386TF2     O2 6782   1.079   2.445   4.940
  386TF2     N1 6783   0.837   2.373   4.942
  386TF2     S2 6784   0.695   2.386   4.874
  386TF2     O3 6785   0.683   2.342   4.735
  386TF2     O4 6786   0.624   2.510   4.903
  386TF2     C2 6787   0.610   2.257   4.972
  386TF2     F4 6788   0.479   2.242   4.939
  386TF2     F5 6789   0.613   2.284   5.106
  386TF2     F6 6790   0.668   2.134   4.958
  387TF2     C1 6791   6.000   0.887   1.652
  387TF2     F1 6792   5.912   0.788   1.619
  387TF2     F2 6793   6.073   0.917   1.540
  387TF2     F3 6794   6.089   0.830   1.739
  387TF2     S1 6795   5.922   1.037   1.725
  387TF2     O1 6796   5.828   0.991   1.828
  387TF2     O2 6797   6.034   1.114   1.781
  387TF2     N1 6798   5.857   1.111   1.600
  387TF2     S2 6799   5.761   1.022   1.512
  387TF2     O3 6800   5.658   0.944   1.581
  387TF2     O4 6801   5.828   0.950   1.404
  387TF2     C2 6802   5.670   1.159   1.432
  387TF2     F4 6803   5.576   1.117   1.343
  387TF2     F5 6804   5.754   1.242   1.362
  387TF2     F6 6805   5.605   1.239   1.522
  388TF2     C1 6806   2.897   6.786   4.611
  388TF2     F1 6807   2.834   6.900   4.575
  388TF2     F2 6808   2.802   6.689   4.628
  388TF2     F3 6809   2.948   6.810   4.736
  388TF2     S1 6810   3.030   6.733   4.495
  388TF2     O1 6811   3.112   6.851   4.465
  388TF2     O2 6812   3.105   6.630   4.568
  388TF2     N1 6813   2.951   6.671   4.372
  388TF2     S2 6814   2.841   6.765   4.309
  388TF2     O3 6815   2.879   6.903   4.278
  388TF2     O4 6816   2.708   6.752   4.370
  388TF2     C2 6817   2.829   6.681   4.147
  388TF2     F4 6818   2.737   6.738   4.064
  388TF2     F5 6819   2.793   6.550   4.159
  388TF2     F6 6820   2.948   6.682   4.079
  389TF2     C1 6821   1.370   0.770   5.384
  389TF2     F1 6822   1.505   0.767   5.389
  389TF2     F2 6823   1.323   0.679   5.475
  389TF2     F3 6824   1.336   0.720   5.261
  389TF2     S1 6825   1.296   0.937   5.410
  389TF2     O1 6826   1.371   1.030   5.325
  389TF2     O2 6827   1.156   0.923   5.368
  389TF2     N1 6828   1.309   0.960   5.566
  389TF2     S2 6829   1.454   0.941   5.626
  389TF2     O3 6830   1.564   1.008   5.558
  389TF2     O4 6831   1.484   0.805   5.669
  389TF2     C2 6832   1.427   1.037   5.780
  389TF2     F4 6833   1.538   1.039   5.860
  389TF2     F5 6834   1.326   0.985   5.856
  389TF2     F6 6835   1.394   1.167   5.756
  390TF2     C1 6836   5.336   4.830   2.734
  390TF2     F1 6837   5.295   4.825   2.864
  390TF2     F2 6838   5.225   4.819   2.655
  390TF2     F3 6839   5.406   4.714   2.714
  390TF2     S1 6840   5.438   4.977   2.692
  390TF2     O1 6841   5.539   4.992   2.797
  390TF2     O2 6842   5.497   4.946   2.561
  390TF2     N1 6843   5.332   5.095   2.681
  390TF2     S2 6844   5.238   5.113   2.807
  390TF2     O3 6845   5.301   5.116   2.939
  390TF2     O4 6846   5.114   5.034   2.801
  390TF2     C2 6847   5.187   5.285   2.774
  390TF2     F4 6848   5.100   5.334   2.866
  390TF2     F5 6849   5.126   5.298   2.652
  390TF2     F6 6850   5.293   5.371   2.771
  391TF2     C1 6851   4.201   4.902   2.188
  391TF2     F1 6852   4.111   4.851   2.276
  391TF2     F2 6853   4.202   4.821   2.078
  391TF2     F3 6854   4.324   4.884   2.247
  391TF2     S1 6855   4.174   5.079   2.144
  391TF2     O1 6856   4.151   5.151   2.269
  391TF2     O2 6857   4.298   5.120   2.077
  391TF2     N1 6858   4.052   5.074   2.042
  391TF2     S2 6859   3.924   4.998   2.095
  391TF2     O3 6860   3.876   5.032   2.229
  391TF2     O4 6861   3.922   4.855   2.065
  391TF2     C2 6862   3.804   5.074   1.980
  391TF2     F4 6863   3.677   5.027   1.997
  391TF2     F5 6864   3.836   5.051   1.849
  391TF2     F6 6865   3.797   5.210   1.993
  392TF2     C1 6866   6.768   5.524   4.253
  392TF2     F1 6867   6.670   5.516   4.347
  392TF2     F2 6868   6.888   5.508   4.317
  392TF2     F3 6869   6.767   5.654   4.210
  392TF2     S1 6870   6.749   5.407   4.112
  392TF2     O1 6871   6.610   5.417   4.067
  392TF2     O2 6872   6.844   5.455   4.011
  392TF2     N1 6873   6.794   5.268   4.172
  392TF2     S2 6874   6.719   5.224   4.305
  392TF2     O3 6875   6.573   5.235   4.307
  392TF2     O4 6876   6.784   5.270   4.428
  392TF2     C2 6877   6.754   5.045   4.294
  392TF2     F4 6878   6.704   4.975   4.399
  392TF2     F5 6879   6.889   5.020   4.291
  392TF2     F6 6880   6.703   4.989   4.181
  393TF2     C1 6881   0.745   1.168   1.265
  393TF2     F1 6882   0.654   1.075   1.301
  393TF2     F2 6883   0.832   1.110   1.177
  393TF2     F3 6884   0.819   1.192   1.378
  393TF2     S1 6885   0.673   1.324   1.198
  393TF2     O1 6886   0.565   1.364   1.288
  393TF2     O2 6887   0.785   1.420   1.198
  393TF2     N1 6888   0.630   1.285   1.050
  393TF2     S2 6889   0.536   1.158   1.039
  393TF2     O3 6890   0.420   1.151   1.128
  393TF2     O4 6891   0.608   1.031   1.025
  393TF2     C2 6892   0.468   1.195   0.873
  393TF2     F4 6893   0.381   1.099   0.829
  393TF2     F5 6894   0.566   1.204   0.778
  393TF2     F6 6895   0.401   1.313   0.870
  394TF2     C1 6896   3.038   2.058   2.354
  394TF2     F1 6897   3.040   1.977   2.245
  394TF2     F2 6898   2.984   2.177   2.317
  394TF2     F3 6899   3.169   2.084   2.383
  394TF2     S1 6900   2.951   1.985   2.500
  394TF2     O1 6901   3.001   1.848   2.516
  394TF2     O2 6902   2.989   2.071   2.613
  394TF2     N1 6903   2.798   1.999   2.464
  394TF2     S2 6904   2.755   1.939   2.324
  394TF2     O3 6905   2.800   1.803   2.292
  394TF2     O4 6906   2.765   2.033   2.213
  394TF2     C2 6907   2.577   1.923   2.360
  394TF2     F4 6908   2.506   1.873   2.254
  394TF2     F5 6909   2.519   2.043   2.391
  394TF2     F6 6910   2.551   1.840   2.466
  395TF2     C1 6911   2.914   1.537   2.930
  395TF2     F1 6912   2.957   1.444   3.019
  395TF2     F2 6913   2.998   1.644   2.937
  395TF2     F3 6914   2.794   1.583   2.981
  395TF2     S1 6915   2.893   1.474   2.758
  395TF2     O1 6916   2.821   1.347   2.767
  395TF2     O2 6917   2.816   1.579   2.689
  395TF2     N1 6918   3.042   1.467   2.703
  395TF2     S2 6919   3.142   1.383   2.793
  395TF2     O3 6920   3.099   1.251   2.838
  395TF2     O4 6921   3.211   1.462   2.895
  395TF2     C2 6922   3.267   1.352   2.663
  395TF2     F4 6923   3.374   1.281   2.709
  395TF2     F5 6924   3.317   1.468   2.610
  395TF2     F6 6925   3.216   1.282   2.557
  396TF2     C1 6926   3.093   4.748   1.343
  396TF2     F1 6927   2.965   4.719   1.306
  396TF2     F2 6928   3.110   4.883   1.333
  396TF2     F3 6929   3.172   4.694   1.245
  396TF2     S1 6930   3.139   4.683   1.509
  396TF2     O1 6931   3.094   4.544   1.516
  396TF2     O2 6932   3.286   4.695   1.515
  396TF2     N1 6933   3.069   4.784   1.610
  396TF2     S2 6934   2.914   4.804   1.587
  396TF2     O3 6935   2.831   4.684   1.572
  396TF2     O4 6936   2.880   4.912   1.494
  396TF2     C2 6937   2.875   4.868   1.754
  396TF2     F4 6938   2.743   4.900   1.769
  396TF2     F5 6939   2.945   4.982   1.783
  396TF2     F6 6940   2.905   4.779   1.853
  397TF2     C1 6941   6.602   2.283   1.159
  397TF2     F1 6942   6.713   2.265   1.235
  397TF2     F2 6943   6.643   2.318   1.034
  397TF2     F3 6944   6.541   2.395   1.210
  397TF2     S1 6945   6.487   2.140   1.157
  397TF2     O1 6946   6.470   2.096   1.296
  397TF2     O2 6947   6.363   2.192   1.099
  397TF2     N1 6948   6.557   2.036   1.060
  397TF2     S2 6949   6.707   2.001   1.097
  397TF2     O3 6950   6.737   1.966   1.236
  397TF2     O4 6951   6.806   2.088   1.035
  397TF2     C2 6952   6.716   1.843   1.005
  397TF2     F4 6953   6.839   1.783   1.013
  397TF2     F5 6954   6.691   1.860   0.871
  397TF2     F6 6955   6.626   1.751   1.049
  398TF2     C1 6956   3.232   2.007   0.234
  398TF2     F1 6957   3.310   2.043   0.340
  398TF2     F2 6958   3.108   1.978   0.282
  398TF2     F3 6959   3.284   1.888   0.190
  398TF2     S1 6960   3.226   2.132   0.098
  398TF2     O1 6961   3.364   2.174   0.071
  398TF2     O2 6962   3.166   2.060  -0.015
  398TF2     N1 6963   3.129   2.244   0.154
  398TF2     S2 6964   3.168   2.302   0.296
  398TF2     O3 6965   3.307   2.343   0.316
  398TF2     O4 6966   3.109   2.230   0.409
  398TF2     C2 6967   3.073   2.458   0.283
  398TF2     F4 6968   3.083   2.536   0.394
  398TF2     F5 6969   2.940   2.436   0.263
  398TF2     F6 6970   3.114   2.536   0.178
  399TF2     C1 6971   2.147   1.335   3.023
  399TF2     F1 6972   2.142   1.306   2.890
  399TF2     F2 6973   2.139   1.470   3.037
  399TF2     F3 6974   2.274   1.302   3.063
  399TF2     S1 6975   2.021   1.247   3.124
  399TF2     O1 6976   2.023   1.106   3.084
  399TF2     O2 6977   2.065   1.266   3.263
  399TF2     N1 6978   1.887   1.326   3.094
  399TF2     S2 6979   1.850   1.342   2.941
  399TF2     O3 6980   1.856   1.222   2.858
  399TF2     O4 6981   1.906   1.461   2.878
  399TF2     C2 6982   1.672   1.376   2.964
  399TF2     F4 6983   1.607   1.398   2.846
  399TF2     F5 6984   1.650   1.487   3.040
  399TF2     F6 6985   1.606   1.274   3.026
  400TF2     C1 6986   3.732   5.683   4.948
  400TF2     F1 6987   3.789   5.766   4.857
  400TF2     F2 6988   3.659   5.590   4.880
  400TF2     F3 6989   3.641   5.759   5.016
  400TF2     S1 6990   3.853   5.605   5.064
  400TF2     O1 6991   3.941   5.712   5.113
  400TF2     O2 6992   3.770   5.548   5.172
  400TF2     N1 6993   3.921   5.492   4.977
  400TF2     S2 6994   3.983   5.540   4.841
  400TF2     O3 6995   4.069   5.659   4.843
  400TF2     O4 6996   3.890   5.536   4.728
  400TF2     C2 6997   4.097   5.400   4.816
  400TF2     F4 6998   4.168   5.408   4.700
  400TF2     F5 6999   4.031   5.280   4.811
  400TF2     F6 7000   4.188   5.388   4.917
  401TF2     C1 7001   1.866   2.707   3.758
  401TF2     F1 7002   1.794   2.597   3.723
  401TF2     F2 7003   1.924   2.682   3.879
  401TF2     F3 7004   1.774   2.805   3.782
  401TF2     S1 7005   1.989   2.760   3.632
  401TF2     O1 7006   1.921   2.760   3.502
  401TF2     O2 7007   2.030   2.895   3.674
  401TF2     N1 7008   2.107   2.655   3.648
  401TF2     S2 7009   2.065   2.504   3.639
  401TF2     O3 7010   1.979   2.464   3.528
  401TF2     O4 7011   2.028   2.444   3.768
  401TF2     C2 7012   2.230   2.436   3.599
  401TF2     F4 7013   2.230   2.300   3.586
  401TF2     F5 7014   2.322   2.465   3.695
  401TF2     F6 7015   2.280   2.486   3.482
  402TF2     C1 7016   2.032   2.472   5.367
  402TF2     F1 7017   2.033   2.608   5.363
  402TF2     F2 7018   2.115   2.433   5.468
  402TF2     F3 7019   2.094   2.432   5.251
  402TF2     S1 7020   1.865   2.398   5.381
  402TF2     O1 7021   1.779   2.465   5.284
  402TF2     O2 7022   1.884   2.255   5.350
  402TF2     N1 7023   1.827   2.419   5.534
  402TF2     S2 7024   1.838   2.568   5.586
  402TF2     O3 7025   1.776   2.673   5.504
  402TF2     O4 7026   1.969   2.603   5.639
  402TF2     C2 7027   1.729   2.550   5.731
  402TF2     F4 7028   1.717   2.665   5.804
  402TF2     F5 7029   1.774   2.454   5.818
  402TF2     F6 7030   1.602   2.512   5.698
  403TF2     C1 7031   3.062   4.189   2.494
  403TF2     F1 7032   3.068   4.181   2.358
  403TF2     F2 7033   3.031   4.318   2.527
  403TF2     F3 7034   3.190   4.170   2.537
  403TF2     S1 7035   2.946   4.069   2.572
  403TF2     O1 7036   2.972   3.938   2.512
  403TF2     O2 7037   2.980   4.072   2.715
  403TF2     N1 7038   2.803   4.131   2.545
  403TF2     S2 7039   2.772   4.164   2.393
  403TF2     O3 7040   2.800   4.061   2.294
  403TF2     O4 7041   2.811   4.299   2.352
  403TF2     C2 7042   2.589   4.168   2.408
  403TF2     F4 7043   2.527   4.197   2.290
  403TF2     F5 7044   2.547   4.261   2.498
  403TF2     F6 7045   2.538   4.048   2.450
  404TF2     C1 7046   1.231   2.211   5.882
  404TF2     F1 7047   1.305   2.243   5.773
  404TF2     F2 7048   1.218   2.323   5.959
  404TF2     F3 7049   1.309   2.125   5.956
  404TF2     S1 7050   1.068   2.134   5.843
  404TF2     O1 7051   1.092   2.031   5.742
  404TF2     O2 7052   1.021   2.078   5.971
  404TF2     N1 7053   0.978   2.257   5.798
  404TF2     S2 7054   1.040   2.345   5.682
  404TF2     O3 7055   1.092   2.276   5.564
  404TF2     O4 7056   1.123   2.456   5.729
  404TF2     C2 7057   0.883   2.422   5.627
  404TF2     F4 7058   0.901   2.510   5.524
  404TF2     F5 7059   0.822   2.491   5.727
  404TF2     F6 7060   0.792   2.330   5.583
  405TF2     C1 7061   3.817   2.231   5.926
  405TF2     F1 7062   3.868   2.159   5.823
  405TF2     F2 7063   3.921   2.278   6.000
  405TF2     F3 7064   3.753   2.140   6.006
  405TF2     S1 7065   3.702   2.366   5.874
  405TF2     O1 7066   3.609   2.309   5.777
  405TF2     O2 7067   3.635   2.407   5.998
  405TF2     N1 7068   3.799   2.480   5.820
  405TF2     S2 7069   3.901   2.433   5.709
  405TF2     O3 7070   3.849   2.356   5.597
  405TF2     O4 7071   4.029   2.384   5.762
  405TF2     C2 7072   3.937   2.599   5.641
  405TF2     F4 7073   4.028   2.596   5.539
  405TF2     F5 7074   3.988   2.684   5.735
  405TF2     F6 7075   3.826   2.660   5.591
  406TF2     C1 7076   0.750   3.468   6.702
  406TF2     F1 7077   0.838   3.384   6.641
  406TF2     F2 7078   0.791   3.596   6.678
  406TF2     F3 7079   0.768   3.449   6.836
  406TF2     S1 7080   0.574   3.441   6.654
  406TF2     O1 7081   0.548   3.297   6.661
  406TF2     O2 7082   0.496   3.517   6.753
  406TF2     N1 7083   0.564   3.507   6.510
  406TF2     S2 7084   0.670   3.455   6.405
  406TF2     O3 7085   0.687   3.310   6.392
  406TF2     O4 7086   0.795   3.531   6.403
  406TF2     C2 7087   0.579   3.506   6.254
  406TF2     F4 7088   0.647   3.477   6.139
  406TF2     F5 7089   0.555   3.641   6.251
  406TF2     F6 7090   0.457   3.446   6.243
  407TF2     C1 7091   4.632   5.424   3.439
  407TF2     F1 7092   4.688   5.516   3.522
  407TF2     F2 7093   4.711   5.312   3.442
  407TF2     F3 7094   4.647   5.475   3.313
  407TF2     S1 7095   4.456   5.386   3.475
  407TF2     O1 7096   4.387   5.514   3.493
  407TF2     O2 7097   4.408   5.313   3.357
  407TF2     N1 7098   4.463   5.292   3.602
  407TF2     S2 7099   4.544   5.350   3.725
  407TF2     O3 7100   4.516   5.487   3.766
  407TF2     O4 7101   4.687   5.316   3.723
  407TF2     C2 7102   4.470   5.244   3.854
  407TF2     F4 7103   4.522   5.267   3.978
  407TF2     F5 7104   4.489   5.111   3.829
  407TF2     F6 7105   4.335   5.261   3.865
  408TF2     C1 7106   2.202   2.148   4.733
  408TF2     F1 7107   2.241   2.046   4.652
  408TF2     F2 7108   2.081   2.115   4.787
  408TF2     F3 7109   2.175   2.253   4.648
  408TF2     S1 7110   2.326   2.196   4.860
  408TF2     O1 7111   2.455   2.206   4.793
  408TF2     O2 7112   2.279   2.325   4.912
  408TF2     N1 7113   2.312   2.082   4.970
  408TF2     S2 7114   2.326   1.934   4.916
  408TF2     O3 7115   2.439   1.905   4.828
  408TF2     O4 7116   2.200   1.873   4.873
  408TF2     C2 7117   2.368   1.855   5.075
  408TF2     F4 7118   2.385   1.720   5.065
  408TF2     F5 7119   2.270   1.874   5.169
  408TF2     F6 7120   2.482   1.905   5.130
  409TF2     C1 7121   4.593   1.666   4.981
  409TF2     F1 7122   4.520   1.553   5.002
  409TF2     F2 7123   4.645   1.704   5.102
  409TF2     F3 7124   4.502   1.763   4.949
  409TF2     S1 7125   4.723   1.650   4.851
  409TF2     O1 7126   4.660   1.586   4.735
  409TF2     O2 7127   4.765   1.788   4.823
  409TF2     N1 7128   4.838   1.568   4.923
  409TF2     S2 7129   4.792   1.431   4.988
  409TF2     O3 7130   4.710   1.341   4.907
  409TF2     O4 7131   4.748   1.443   5.127
  409TF2     C2 7132   4.957   1.353   4.995
  409TF2     F4 7133   4.955   1.229   5.051
  409TF2     F5 7134   5.046   1.426   5.068
  409TF2     F6 7135   5.014   1.339   4.871
  410TF2     C1 7136   2.138   5.306   0.970
  410TF2     F1 7137   2.074   5.292   1.089
  410TF2     F2 7138   2.272   5.297   0.994
  410TF2     F3 7139   2.116   5.435   0.931
  410TF2     S1 7140   2.082   5.187   0.840
  410TF2     O1 7141   1.936   5.188   0.840
  410TF2     O2 7142   2.138   5.240   0.715
  410TF2     N1 7143   2.151   5.051   0.882
  410TF2     S2 7144   2.124   5.004   1.030
  410TF2     O3 7145   1.985   5.006   1.077
  410TF2     O4 7146   2.221   5.054   1.128
  410TF2     C2 7147   2.164   4.827   1.007
  410TF2     F4 7148   2.153   4.754   1.121
  410TF2     F5 7149   2.292   4.809   0.962
  410TF2     F6 7150   2.084   4.767   0.914
  411TF2     C1 7151   1.225   2.914   4.403
  411TF2     F1 7152   1.316   2.816   4.384
  411TF2     F2 7153   1.246   3.010   4.308
  411TF2     F3 7154   1.258   2.973   4.522
  411TF2     S1 7155   1.050   2.856   4.405
  411TF2     O1 7156   1.044   2.738   4.491
  411TF2     O2 7157   0.973   2.969   4.459
  411TF2     N1 7158   1.017   2.831   4.251
  411TF2     S2 7159   1.118   2.736   4.175
  411TF2     O3 7160   1.153   2.609   4.239
  411TF2     O4 7161   1.231   2.806   4.114
  411TF2     C2 7162   1.007   2.691   4.037
  411TF2     F4 7163   1.066   2.608   3.947
  411TF2     F5 7164   0.966   2.801   3.967
  411TF2     F6 7165   0.894   2.628   4.079
  412TF2     C1 7166   0.558   6.508   4.777
  412TF2     F1 7167   0.437   6.493   4.836
  412TF2     F2 7168   0.574   6.407   4.686
  412TF2     F3 7169   0.650   6.484   4.875
  412TF2     S1 7170   0.584   6.674   4.701
  412TF2     O1 7171   0.542   6.774   4.799
  412TF2     O2 7172   0.729   6.680   4.673
  412TF2     N1 7173   0.500   6.668   4.566
  412TF2     S2 7174   0.349   6.626   4.584
  412TF2     O3 7175   0.271   6.694   4.688
  412TF2     O4 7176   0.325   6.482   4.576
  412TF2     C2 7177   0.288   6.694   4.426
  412TF2     F4 7178   0.154   6.673   4.406
  412TF2     F5 7179   0.351   6.639   4.318
  412TF2     F6 7180   0.307   6.829   4.416
  413TF2     C1 7181   2.335   2.743   2.338
  413TF2     F1 7182   2.403   2.658   2.256
  413TF2     F2 7183   2.264   2.828   2.259
  413TF2     F3 7184   2.431   2.820   2.398
  413TF2     S1 7185   2.229   2.659   2.463
  413TF2     O1 7186   2.310   2.553   2.525
  413TF2     O2 7187   2.193   2.765   2.559
  413TF2     N1 7188   2.103   2.611   2.380
  413TF2     S2 7189   2.137   2.524   2.252
  413TF2     O3 7190   2.230   2.413   2.268
  413TF2     O4 7191   2.157   2.602   2.130
  413TF2     C2 7192   1.972   2.446   2.234
  413TF2     F4 7193   1.965   2.362   2.127
  413TF2     F5 7194   1.873   2.538   2.218
  413TF2     F6 7195   1.937   2.372   2.343
  414TF2     C1 7196   4.448   3.586   2.177
  414TF2     F1 7197   4.534   3.606   2.280
  414TF2     F2 7198   4.354   3.495   2.218
  414TF2     F3 7199   4.521   3.521   2.081
  414TF2     S1 7200   4.372   3.739   2.110
  414TF2     O1 7201   4.479   3.837   2.092
  414TF2     O2 7202   4.311   3.699   1.982
  414TF2     N1 7203   4.261   3.777   2.217
  414TF2     S2 7204   4.313   3.788   2.366
  414TF2     O3 7205   4.433   3.867   2.390
  414TF2     O4 7206   4.308   3.662   2.441
  414TF2     C2 7207   4.175   3.889   2.431
  414TF2     F4 7208   4.187   3.917   2.564
  414TF2     F5 7209   4.054   3.827   2.415
  414TF2     F6 7210   4.164   4.009   2.367
  415TF2     C1 7211   2.765   3.716   5.085
  415TF2     F1 7212   2.695   3.758   5.194
  415TF2     F2 7213   2.708   3.773   4.975
  415TF2     F3 7214   2.738   3.582   5.074
  415TF2     S1 7215   2.946   3.747   5.094
  415TF2     O1 7216   2.991   3.703   5.227
  415TF2     O2 7217   3.004   3.667   4.986
  415TF2     N1 7218   2.959   3.903   5.065
  415TF2     S2 7219   2.870   3.996   5.156
  415TF2     O3 7220   2.874   3.973   5.301
  415TF2     O4 7221   2.736   4.023   5.104
  415TF2     C2 7222   2.965   4.150   5.130
  415TF2     F4 7223   2.912   4.257   5.196
  415TF2     F5 7224   2.970   4.186   4.998
  415TF2     F6 7225   3.095   4.140   5.171
  416TF2     C1 7226   3.722   3.189   6.274
  416TF2     F1 7227   3.643   3.166   6.382
  416TF2     F2 7228   3.820   3.094   6.274
  416TF2     F3 7229   3.785   3.307   6.300
  416TF2     S1 7230   3.632   3.195   6.114
  416TF2     O1 7231   3.515   3.281   6.133
  416TF2     O2 7232   3.728   3.252   6.019
  416TF2     N1 7233   3.601   3.043   6.082
  416TF2     S2 7234   3.527   2.963   6.196
  416TF2     O3 7235   3.409   3.025   6.257
  416TF2     O4 7236   3.617   2.899   6.292
  416TF2     C2 7237   3.462   2.828   6.092
  416TF2     F4 7238   3.392   2.735   6.162
  416TF2     F5 7239   3.562   2.760   6.028
  416TF2     F6 7240   3.379   2.873   5.993
  417TF2     C1 7241   4.547   3.603   4.318
  417TF2     F1 7242   4.435   3.676   4.341
  417TF2     F2 7243   4.599   3.566   4.439
  417TF2     F3 7244   4.638   3.690   4.265
  417TF2     S1 7245   4.521   3.458   4.207
  417TF2     O1 7246   4.444   3.505   4.091
  417TF2     O2 7247   4.657   3.415   4.169
  417TF2     N1 7248   4.450   3.351   4.299
  417TF2     S2 7249   4.320   3.402   4.373
  417TF2     O3 7250   4.220   3.473   4.293
  417TF2     O4 7251   4.344   3.463   4.504
  417TF2     C2 7252   4.247   3.238   4.407
  417TF2     F4 7253   4.129   3.245   4.475
  417TF2     F5 7254   4.330   3.160   4.483
  417TF2     F6 7255   4.222   3.167   4.294
  418TF2     C1 7256   0.732   2.963   1.821
  418TF2     F1 7257   0.683   2.849   1.876
  418TF2     F2 7258   0.849   2.932   1.758
  418TF2     F3 7259   0.767   3.042   1.927
  418TF2     S1 7260   0.614   3.050   1.710
  418TF2     O1 7261   0.485   3.057   1.779
  418TF2     O2 7262   0.673   3.183   1.689
  418TF2     N1 7263   0.617   2.964   1.577
  418TF2     S2 7264   0.588   2.810   1.596
  418TF2     O3 7265   0.472   2.772   1.676
  418TF2     O4 7266   0.708   2.729   1.621
  418TF2     C2 7267   0.541   2.774   1.423
  418TF2     F4 7268   0.511   2.643   1.402
  418TF2     F5 7269   0.641   2.805   1.334
  418TF2     F6 7270   0.432   2.846   1.382
  419TF2     C1 7271   3.423   2.468   3.500
  419TF2     F1 7272   3.446   2.514   3.626
  419TF2     F2 7273   3.370   2.342   3.510
  419TF2     F3 7274   3.547   2.450   3.444
  419TF2     S1 7275   3.319   2.579   3.396
  419TF2     O1 7276   3.372   2.714   3.411
  419TF2     O2 7277   3.335   2.528   3.259
  419TF2     N1 7278   3.172   2.554   3.451
  419TF2     S2 7279   3.154   2.573   3.606
  419TF2     O3 7280   3.210   2.694   3.667
  419TF2     O4 7281   3.177   2.452   3.685
  419TF2     C2 7282   2.973   2.599   3.606
  419TF2     F4 7283   2.922   2.617   3.731
  419TF2     F5 7284   2.907   2.493   3.552
  419TF2     F6 7285   2.936   2.708   3.533
  420TF2     C1 7286   3.033   1.089   1.919
  420TF2     F1 7287   3.065   0.995   2.011
  420TF2     F2 7288   2.938   1.170   1.973
  420TF2     F3 7289   2.970   1.022   1.818
  420TF2     S1 7290   3.177   1.184   1.854
  420TF2     O1 7291   3.282   1.087   1.821
  420TF2     O2 7292   3.126   1.254   1.736
  420TF2     N1 7293   3.211   1.285   1.972
  420TF2     S2 7294   3.233   1.219   2.113
  420TF2     O3 7295   3.322   1.103   2.121
  420TF2     O4 7296   3.111   1.206   2.193
  420TF2     C2 7297   3.327   1.357   2.189
  420TF2     F4 7298   3.361   1.333   2.319
  420TF2     F5 7299   3.255   1.473   2.189
  420TF2     F6 7300   3.443   1.384   2.122
  421TF2     C1 7301   5.880   5.415   4.347
  421TF2     F1 7302   6.002   5.369   4.308
  421TF2     F2 7303   5.805   5.308   4.387
  421TF2     F3 7304   5.820   5.461   4.233
  421TF2     S1 7305   5.887   5.546   4.476
  421TF2     O1 7306   5.987   5.644   4.434
  421TF2     O2 7307   5.751   5.603   4.479
  421TF2     N1 7308   5.919   5.467   4.610
  421TF2     S2 7309   6.046   5.374   4.603
  421TF2     O3 7310   6.170   5.431   4.549
  421TF2     O4 7311   6.019   5.237   4.558
  421TF2     C2 7312   6.074   5.361   4.783
  421TF2     F4 7313   6.181   5.282   4.815
  421TF2     F5 7314   5.967   5.308   4.849
  421TF2     F6 7315   6.098   5.482   4.841
  422TF2     C1 7316   4.557   0.549   3.743
  422TF2     F1 7317   4.475   0.613   3.831
  422TF2     F2 7318   4.479   0.501   3.641
  422TF2     F3 7319   4.602   0.438   3.809
  422TF2     S1 7320   4.697   0.651   3.681
  422TF2     O1 7321   4.758   0.716   3.797
  422TF2     O2 7322   4.788   0.556   3.616
  422TF2     N1 7323   4.629   0.748   3.575
  422TF2     S2 7324   4.506   0.830   3.628
  422TF2     O3 7325   4.521   0.900   3.756
  422TF2     O4 7326   4.377   0.763   3.612
  422TF2     C2 7327   4.509   0.962   3.501
  422TF2     F4 7328   4.409   1.053   3.517
  422TF2     F5 7329   4.495   0.911   3.375
  422TF2     F6 7330   4.626   1.032   3.501
  423TF2     C1 7331   2.932   3.116   4.561
  423TF2     F1 7332   2.899   3.148   4.688
  423TF2     F2 7333   2.960   2.982   4.557
  423TF2     F3 7334   3.052   3.178   4.538
  423TF2     S1 7335   2.807   3.164   4.434
  423TF2     O1 7336   2.768   3.302   4.463
  423TF2     O2 7337   2.877   3.151   4.305
  423TF2     N1 7338   2.694   3.054   4.450
  423TF2     S2 7339   2.637   3.037   4.597
  423TF2     O3 7340   2.599   3.159   4.670
  423TF2     O4 7341   2.709   2.939   4.678
  423TF2     C2 7342   2.479   2.958   4.551
  423TF2     F4 7343   2.402   2.926   4.659
  423TF2     F5 7344   2.498   2.841   4.482
  423TF2     F6 7345   2.402   3.037   4.471
  424TF2     C1 7346   2.934   6.335   0.830
  424TF2     F1 7347   2.888   6.296   0.951
  424TF2     F2 7348   3.038   6.421   0.850
  424TF2     F3 7349   2.833   6.412   0.776
  424TF2     S1 7350   2.979   6.197   0.717
  424TF2     O1 7351   2.870   6.100   0.721
  424TF2     O2 7352   2.993   6.260   0.584
  424TF2     N1 7353   3.119   6.148   0.772
  424TF2     S2 7354   3.121   6.111   0.926
  424TF2     O3 7355   3.015   6.025   0.977
  424TF2     O4 7356   3.154   6.223   1.014
  424TF2     C2 7357   3.271   6.006   0.922
  424TF2     F4 7358   3.305   5.957   1.045
  424TF2     F5 7359   3.380   6.073   0.876
  424TF2     F6 7360   3.257   5.898   0.840
  425TF2     C1 7361   2.881   3.805   3.296
  425TF2     F1 7362   2.762   3.753   3.258
  425TF2     F2 7363   2.862   3.938   3.321
  425TF2     F3 7364   2.961   3.800   3.185
  425TF2     S1 7365   2.960   3.719   3.438
  425TF2     O1 7366   2.953   3.575   3.411
  425TF2     O2 7367   3.098   3.769   3.441
  425TF2     N1 7368   2.878   3.769   3.564
  425TF2     S2 7369   2.721   3.751   3.554
  425TF2     O3 7370   2.671   3.620   3.512
  425TF2     O4 7371   2.651   3.864   3.494
  425TF2     C2 7372   2.685   3.760   3.733
  425TF2     F4 7373   2.552   3.750   3.761
  425TF2     F5 7374   2.727   3.879   3.788
  425TF2     F6 7375   2.748   3.662   3.804
  426TF2     C1 7376   2.990   5.774   3.005
  426TF2     F1 7377   3.008   5.850   3.116
  426TF2     F2 7378   2.948   5.856   2.904
  426TF2     F3 7379   2.883   5.693   3.033
  426TF2     S1 7380   3.137   5.674   2.957
  426TF2     O1 7381   3.187   5.609   3.078
  426TF2     O2 7382   3.087   5.578   2.858
  426TF2     N1 7383   3.234   5.780   2.889
  426TF2     S2 7384   3.266   5.908   2.977
  426TF2     O3 7385   3.306   5.886   3.116
  426TF2     O4 7386   3.172   6.019   2.959
  426TF2     C2 7387   3.419   5.958   2.891
  426TF2     F4 7388   3.475   6.071   2.942
  426TF2     F5 7389   3.397   5.982   2.758
  426TF2     F6 7390   3.516   5.862   2.896
  427TF2     C1 7391   1.729   2.665   0.145
  427TF2     F1 7392   1.670   2.543   0.131
  427TF2     F2 7393   1.680   2.746   0.046
  427TF2     F3 7394   1.861   2.645   0.113
  427TF2     S1 7395   1.711   2.740   0.312
  427TF2     O1 7396   1.744   2.636   0.410
  427TF2     O2 7397   1.807   2.851   0.314
  427TF2     N1 7398   1.561   2.793   0.314
  427TF2     S2 7399   1.452   2.685   0.277
  427TF2     O3 7400   1.459   2.555   0.344
  427TF2     O4 7401   1.421   2.677   0.135
  427TF2     C2 7402   1.309   2.771   0.354
  427TF2     F4 7403   1.192   2.703   0.338
  427TF2     F5 7404   1.289   2.895   0.301
  427TF2     F6 7405   1.325   2.790   0.488
  428TF2     C1 7406   5.990   5.106   5.740
  428TF2     F1 7407   5.930   5.086   5.620
  428TF2     F2 7408   6.111   5.165   5.716
  428TF2     F3 7409   6.020   4.981   5.787
  428TF2     S1 7410   5.889   5.201   5.862
  428TF2     O1 7411   5.755   5.142   5.861
  428TF2     O2 7412   5.958   5.182   5.990
  428TF2     N1 7413   5.900   5.351   5.811
  428TF2     S2 7414   5.861   5.374   5.660
  428TF2     O3 7415   5.736   5.315   5.613
  428TF2     O4 7416   5.973   5.360   5.566
  428TF2     C2 7417   5.828   5.553   5.672
  428TF2     F4 7418   5.792   5.609   5.553
  428TF2     F5 7419   5.938   5.623   5.715
  428TF2     F6 7420   5.728   5.582   5.760
  429TF2     C1 7421   5.330   6.772   2.484
  429TF2     F1 7422   5.282   6.682   2.574
  429TF2     F2 7423   5.315   6.897   2.537
  429TF2     F3 7424   5.243   6.767   2.378
  429TF2     S1 7425   5.503   6.740   2.429
  429TF2     O1 7426   5.513   6.598   2.397
  429TF2     O2 7427   5.521   6.826   2.311
  429TF2     N1 7428   5.591   6.791   2.552
  429TF2     S2 7429   5.553   6.728   2.692
  429TF2     O3 7430   5.537   6.583   2.699
  429TF2     O4 7431   5.452   6.804   2.766
  429TF2     C2 7432   5.711   6.763   2.776
  429TF2     F4 7433   5.713   6.723   2.906
  429TF2     F5 7434   5.740   6.897   2.777
  429TF2     F6 7435   5.817   6.702   2.715
  430TF2     C1 7436   2.891   0.693   4.973
  430TF2     F1 7437   2.821   0.785   5.043
  430TF2     F2 7438   2.820   0.576   4.972
  430TF2     F3 7439   3.003   0.666   5.048
  430TF2     S1 7440   2.938   0.746   4.803
  430TF2     O1 7441   2.992   0.882   4.813
  430TF2     O2 7442   3.039   0.649   4.759
  430TF2     N1 7443   2.804   0.731   4.720
  430TF2     S2 7444   2.678   0.806   4.781
  430TF2     O3 7445   2.696   0.945   4.822
  430TF2     O4 7446   2.600   0.725   4.875
  430TF2     C2 7447   2.579   0.812   4.628
  430TF2     F4 7448   2.457   0.872   4.646
  430TF2     F5 7449   2.554   0.688   4.578
  430TF2     F6 7450   2.641   0.882   4.528
  431TF2     C1 7451   0.919   1.914   6.441
  431TF2     F1 7452   0.789   1.885   6.416
  431TF2     F2 7453   0.992   1.876   6.332
  431TF2     F3 7454   0.957   1.830   6.542
  431TF2     S1 7455   0.950   2.090   6.487
  431TF2     O1 7456   0.850   2.126   6.588
  431TF2     O2 7457   1.086   2.092   6.541
  431TF2     N1 7458   0.940   2.167   6.349
  431TF2     S2 7459   0.808   2.142   6.267
  431TF2     O3 7460   0.680   2.154   6.338
  431TF2     O4 7461   0.815   2.029   6.174
  431TF2     C2 7462   0.817   2.292   6.162
  431TF2     F4 7463   0.714   2.301   6.073
  431TF2     F5 7464   0.932   2.296   6.088
  431TF2     F6 7465   0.816   2.407   6.235
  432TF2     C1 7466   3.131   0.937   2.919
  432TF2     F1 7467   3.240   0.960   2.841
  432TF2     F2 7468   3.066   1.056   2.936
  432TF2     F3 7469   3.180   0.905   3.042
  432TF2     S1 7470   3.019   0.805   2.855
  432TF2     O1 7471   3.102   0.691   2.818
  432TF2     O2 7472   2.929   0.775   2.968
  432TF2     N1 7473   2.941   0.876   2.736
  432TF2     S2 7474   3.032   0.943   2.627
  432TF2     O3 7475   3.143   0.865   2.573
  432TF2     O4 7476   3.066   1.083   2.655
  432TF2     C2 7477   2.908   0.949   2.493
  432TF2     F4 7478   2.955   1.006   2.379
  432TF2     F5 7479   2.797   1.020   2.529
  432TF2     F6 7480   2.863   0.824   2.458
  433TF2     C1 7481   5.718   3.096   0.993
  433TF2     F1 7482   5.699   2.968   0.953
  433TF2     F2 7483   5.704   3.177   0.883
  433TF2     F3 7484   5.851   3.104   1.027
  433TF2     S1 7485   5.611   3.149   1.133
  433TF2     O1 7486   5.616   3.044   1.234
  433TF2     O2 7487   5.670   3.275   1.180
  433TF2     N1 7488   5.470   3.174   1.065
  433TF2     S2 7489   5.414   3.052   0.980
  433TF2     O3 7490   5.416   2.920   1.042
  433TF2     O4 7491   5.454   3.053   0.840
  433TF2     C2 7492   5.238   3.103   0.982
  433TF2     F4 7493   5.158   3.017   0.912
  433TF2     F5 7494   5.219   3.226   0.926
  433TF2     F6 7495   5.187   3.110   1.108
  434TF2     C1 7496   4.183   6.734   3.468
  434TF2     F1 7497   4.155   6.611   3.416
  434TF2     F2 7498   4.176   6.825   3.367
  434TF2     F3 7499   4.316   6.729   3.503
  434TF2     S1 7500   4.078   6.781   3.612
  434TF2     O1 7501   4.075   6.666   3.703
  434TF2     O2 7502   4.146   6.897   3.671
  434TF2     N1 7503   3.940   6.822   3.546
  434TF2     S2 7504   3.877   6.713   3.451
  434TF2     O3 7505   3.869   6.575   3.500
  434TF2     O4 7506   3.918   6.724   3.311
  434TF2     C2 7507   3.705   6.775   3.456
  434TF2     F4 7508   3.619   6.702   3.379
  434TF2     F5 7509   3.696   6.904   3.412
  434TF2     F6 7510   3.653   6.775   3.582
  435TF2     C1 7511   4.945   1.314   3.247
  435TF2     F1 7512   4.844   1.355   3.328
  435TF2     F2 7513   5.053   1.394   3.271
  435TF2     F3 7514   4.904   1.345   3.120
  435TF2     S1 7515   4.986   1.135   3.261
  435TF2     O1 7516   4.859   1.061   3.258
  435TF2     O2 7517   5.070   1.106   3.144
  435TF2     N1 7518   5.068   1.126   3.396
  435TF2     S2 7519   4.997   1.188   3.523
  435TF2     O3 7520   4.858   1.151   3.548
  435TF2     O4 7521   5.026   1.330   3.544
  435TF2     C2 7522   5.094   1.099   3.650
  435TF2     F4 7523   5.058   1.132   3.777
  435TF2     F5 7524   5.228   1.124   3.640
  435TF2     F6 7525   5.081   0.963   3.640
  436TF2     C1 7526   4.142   2.431   4.911
  436TF2     F1 7527   4.065   2.354   4.829
  436TF2     F2 7528   4.259   2.458   4.845
  436TF2     F3 7529   4.177   2.350   5.016
  436TF2     S1 7530   4.059   2.585   4.970
  436TF2     O1 7531   3.925   2.547   5.016
  436TF2     O2 7532   4.144   2.633   5.079
  436TF2     N1 7533   4.065   2.681   4.844
  436TF2     S2 7534   4.005   2.621   4.711
  436TF2     O3 7535   3.874   2.557   4.717
  436TF2     O4 7536   4.103   2.550   4.629
  436TF2     C2 7537   3.976   2.781   4.625
  436TF2     F4 7538   3.925   2.765   4.500
  436TF2     F5 7539   4.091   2.853   4.611
  436TF2     F6 7540   3.889   2.861   4.693
  437TF2     C1 7541   4.346   6.769   2.133
  437TF2     F1 7542   4.352   6.697   2.248
  437TF2     F2 7543   4.360   6.901   2.165
  437TF2     F3 7544   4.217   6.756   2.089
  437TF2     S1 7545   4.466   6.716   2.004
  437TF2     O1 7546   4.458   6.570   1.995
  437TF2     O2 7547   4.420   6.782   1.881
  437TF2     N1 7548   4.604   6.775   2.054
  437TF2     S2 7549   4.645   6.737   2.202
  437TF2     O3 7550   4.635   6.596   2.240
  437TF2     O4 7551   4.596   6.830   2.304
  437TF2     C2 7552   4.824   6.770   2.186
  437TF2     F4 7553   4.892   6.748   2.302
  437TF2     F5 7554   4.849   6.900   2.150
  437TF2     F6 7555   4.883   6.693   2.091
  438TF2     C1 7556   4.242   2.810   2.038
  438TF2     F1 7557   4.271   2.931   2.091
  438TF2     F2 7558   4.241   2.719   2.139
  438TF2     F3 7559   4.350   2.777   1.960
  438TF2     S1 7560   4.086   2.806   1.940
  438TF2     O1 7561   4.087   2.922   1.851
  438TF2     O2 7562   4.091   2.679   1.866
  438TF2     N1 7563   3.972   2.804   2.050
  438TF2     S2 7564   3.980   2.920   2.157
  438TF2     O3 7565   3.998   3.056   2.107
  438TF2     O4 7566   4.060   2.888   2.275
  438TF2     C2 7567   3.806   2.912   2.212
  438TF2     F4 7568   3.777   3.002   2.310
  438TF2     F5 7569   3.773   2.789   2.262
  438TF2     F6 7570   3.717   2.936   2.111
  439TF2     C1 7571   2.313   2.990   5.302
  439TF2     F1 7572   2.371   2.908   5.394
  439TF2     F2 7573   2.412   3.048   5.229
  439TF2     F3 7574   2.257   3.092   5.375
  439TF2     S1 7575   2.187   2.908   5.196
  439TF2     O1 7576   2.100   2.829   5.283
  439TF2     O2 7577   2.115   3.018   5.130
  439TF2     N1 7578   2.274   2.825   5.092
  439TF2     S2 7579   2.381   2.728   5.156
  439TF2     O3 7580   2.336   2.639   5.264
  439TF2     O4 7581   2.512   2.789   5.179
  439TF2     C2 7582   2.402   2.619   5.011
  439TF2     F4 7583   2.494   2.520   5.031
  439TF2     F5 7584   2.445   2.688   4.900
  439TF2     F6 7585   2.286   2.557   4.974
  440TF2     C1 7586   0.960   4.054   5.820
  440TF2     F1 7587   0.937   4.183   5.788
  440TF2     F2 7588   1.079   4.018   5.764
  440TF2     F3 7589   0.865   3.981   5.754
  440TF2     S1 7590   0.956   4.019   6.001
  440TF2     O1 7591   0.836   4.083   6.055
  440TF2     O2 7592   0.951   3.872   6.011
  440TF2     N1 7593   1.095   4.076   6.054
  440TF2     S2 7594   1.124   4.226   6.016
  440TF2     O3 7595   1.019   4.324   6.040
  440TF2     O4 7596   1.194   4.243   5.888
  440TF2     C2 7597   1.250   4.258   6.145
  440TF2     F4 7598   1.301   4.384   6.139
  440TF2     F5 7599   1.357   4.173   6.135
  440TF2     F6 7600   1.201   4.242   6.271
  441TF2     C1 7601   1.412   4.321   2.552
  441TF2     F1 7602   1.444   4.370   2.674
  441TF2     F2 7603   1.330   4.213   2.571
  441TF2     F3 7604   1.529   4.268   2.502
  441TF2     S1 7605   1.341   4.444   2.436
  441TF2     O1 7606   1.425   4.564   2.442
  441TF2     O2 7607   1.345   4.380   2.304
  441TF2     N1 7608   1.192   4.462   2.487
  441TF2     S2 7609   1.177   4.498   2.640
  441TF2     O3 7610   1.260   4.606   2.693
  441TF2     O4 7611   1.167   4.382   2.729
  441TF2     C2 7612   1.008   4.567   2.631
  441TF2     F4 7613   0.960   4.608   2.753
  441TF2     F5 7614   0.917   4.476   2.584
  441TF2     F6 7615   1.000   4.675   2.548
  442TF2     C1 7616   5.015   1.851   1.987
  442TF2     F1 7617   4.946   1.762   2.063
  442TF2     F2 7618   5.147   1.842   2.021
  442TF2     F3 7619   4.975   1.975   2.030
  442TF2     S1 7620   4.989   1.832   1.806
  442TF2     O1 7621   4.845   1.819   1.784
  442TF2     O2 7622   5.044   1.955   1.746
  442TF2     N1 7623   5.077   1.705   1.768
  442TF2     S2 7624   5.048   1.575   1.854
  442TF2     O3 7625   4.908   1.535   1.870
  442TF2     O4 7626   5.128   1.564   1.975
  442TF2     C2 7627   5.118   1.454   1.736
  442TF2     F4 7628   5.112   1.326   1.782
  442TF2     F5 7629   5.250   1.479   1.710
  442TF2     F6 7630   5.056   1.456   1.615
  443TF2     C1 7631   0.615   3.389   3.644
  443TF2     F1 7632   0.712   3.342   3.728
  443TF2     F2 7633   0.544   3.484   3.712
  443TF2     F3 7634   0.529   3.284   3.626
  443TF2     S1 7635   0.678   3.452   3.483
  443TF2     O1 7636   0.772   3.352   3.431
  443TF2     O2 7637   0.559   3.466   3.398
  443TF2     N1 7638   0.740   3.593   3.519
  443TF2     S2 7639   0.847   3.592   3.636
  443TF2     O3 7640   0.953   3.492   3.630
  443TF2     O4 7641   0.789   3.611   3.770
  443TF2     C2 7642   0.927   3.751   3.595
  443TF2     F4 7643   1.028   3.784   3.682
  443TF2     F5 7644   0.839   3.856   3.597
  443TF2     F6 7645   0.983   3.751   3.470
  444TF2     C1 7646   5.305   0.810   0.837
  444TF2     F1 7647   5.188   0.756   0.794
  444TF2     F2 7648   5.338   0.912   0.752
  444TF2     F3 7649   5.400   0.713   0.815
  444TF2     S1 7650   5.304   0.863   1.013
  444TF2     O1 7651   5.245   0.754   1.091
  444TF2     O2 7652   5.445   0.886   1.047
  444TF2     N1 7653   5.222   0.999   1.011
  444TF2     S2 7654   5.080   0.991   0.943
  444TF2     O3 7655   4.992   0.881   0.983
  444TF2     O4 7656   5.080   1.018   0.799
  444TF2     C2 7657   5.009   1.141   1.020
  444TF2     F4 7658   4.881   1.166   0.980
  444TF2     F5 7659   5.081   1.253   0.991
  444TF2     F6 7660   5.005   1.132   1.156
  445TF2     C1 7661   2.461   6.381   0.526
  445TF2     F1 7662   2.347   6.446   0.560
  445TF2     F2 7663   2.505   6.433   0.408
  445TF2     F3 7664   2.423   6.253   0.497
  445TF2     S1 7665   2.592   6.383   0.656
  445TF2     O1 7666   2.527   6.348   0.783
  445TF2     O2 7667   2.690   6.282   0.613
  445TF2     N1 7668   2.652   6.530   0.647
  445TF2     S2 7669   2.546   6.647   0.657
  445TF2     O3 7670   2.448   6.640   0.765
  445TF2     O4 7671   2.490   6.688   0.528
  445TF2     C2 7672   2.662   6.779   0.704
  445TF2     F4 7673   2.602   6.900   0.720
  445TF2     F5 7674   2.761   6.797   0.611
  445TF2     F6 7675   2.726   6.753   0.822
  446TF2     C1 7676   0.832   3.771   4.263
  446TF2     F1 7677   0.851   3.720   4.139
  446TF2     F2 7678   0.822   3.907   4.252
  446TF2     F3 7679   0.950   3.749   4.330
  446TF2     S1 7680   0.689   3.699   4.354
  446TF2     O1 7681   0.698   3.553   4.339
  446TF2     O2 7682   0.707   3.742   4.493
  446TF2     N1 7683   0.563   3.768   4.287
  446TF2     S2 7684   0.555   3.756   4.130
  446TF2     O3 7685   0.575   3.624   4.071
  446TF2     O4 7686   0.621   3.865   4.058
  446TF2     C2 7687   0.376   3.789   4.114
  446TF2     F4 7688   0.333   3.788   3.985
  446TF2     F5 7689   0.341   3.911   4.165
  446TF2     F6 7690   0.299   3.697   4.180
  447TF2     C1 7691   2.066   3.648   3.566
  447TF2     F1 7692   2.201   3.664   3.567
  447TF2     F2 7693   2.033   3.566   3.670
  447TF2     F3 7694   2.039   3.575   3.453
  447TF2     S1 7695   1.970   3.805   3.569
  447TF2     O1 7696   2.030   3.894   3.469
  447TF2     O2 7697   1.833   3.766   3.534
  447TF2     N1 7698   1.980   3.853   3.720
  447TF2     S2 7699   2.127   3.864   3.777
  447TF2     O3 7700   2.226   3.934   3.696
  447TF2     O4 7701   2.177   3.741   3.839
  447TF2     C2 7702   2.089   3.977   3.915
  447TF2     F4 7703   2.199   4.007   3.991
  447TF2     F5 7704   1.997   3.924   4.001
  447TF2     F6 7705   2.038   4.096   3.873
  448TF2     C1 7706   4.303   4.191   2.024
  448TF2     F1 7707   4.389   4.112   1.955
  448TF2     F2 7708   4.271   4.297   1.943
  448TF2     F3 7709   4.376   4.245   2.127
  448TF2     S1 7710   4.153   4.105   2.087
  448TF2     O1 7711   4.198   3.981   2.151
  448TF2     O2 7712   4.093   4.198   2.183
  448TF2     N1 7713   4.062   4.087   1.958
  448TF2     S2 7714   4.133   4.017   1.835
  448TF2     O3 7715   4.206   3.893   1.861
  448TF2     O4 7716   4.201   4.110   1.744
  448TF2     C2 7717   3.980   3.966   1.748
  448TF2     F4 7718   4.006   3.901   1.631
  448TF2     F5 7719   3.900   4.072   1.717
  448TF2     F6 7720   3.903   3.881   1.823
  449TF2     C1 7721   4.633   4.907   0.399
  449TF2     F1 7722   4.603   4.861   0.523
  449TF2     F2 7723   4.583   4.818   0.308
  449TF2     F3 7724   4.769   4.896   0.388
  449TF2     S1 7725   4.577   5.079   0.366
  449TF2     O1 7726   4.616   5.160   0.481
  449TF2     O2 7727   4.648   5.119   0.243
  449TF2     N1 7728   4.421   5.064   0.341
  449TF2     S2 7729   4.342   4.989   0.455
  449TF2     O3 7730   4.365   5.031   0.593
  449TF2     O4 7731   4.333   4.844   0.437
  449TF2     C2 7732   4.176   5.053   0.413
  449TF2     F4 7733   4.078   5.004   0.494
  449TF2     F5 7734   4.139   5.021   0.285
  449TF2     F6 7735   4.168   5.189   0.421
  450TF2     C1 7736   1.930   1.589   4.261
  450TF2     F1 7737   2.029   1.497   4.251
  450TF2     F2 7738   1.881   1.612   4.135
  450TF2     F3 7739   1.992   1.706   4.297
  450TF2     S1 7740   1.797   1.546   4.380
  450TF2     O1 7741   1.862   1.501   4.504
  450TF2     O2 7742   1.721   1.670   4.399
  450TF2     N1 7743   1.711   1.437   4.303
  450TF2     S2 7744   1.793   1.314   4.248
  450TF2     O3 7745   1.886   1.248   4.339
  450TF2     O4 7746   1.845   1.333   4.112
  450TF2     C2 7747   1.653   1.198   4.231
  450TF2     F4 7748   1.689   1.077   4.180
  450TF2     F5 7749   1.556   1.247   4.147
  450TF2     F6 7750   1.590   1.174   4.349
  451TF2     C1 7751   6.099   4.269   1.975
  451TF2     F1 7752   6.233   4.272   1.952
  451TF2     F2 7753   6.057   4.397   1.993
  451TF2     F3 7754   6.084   4.208   2.097
  451TF2     S1 7755   6.001   4.182   1.845
  451TF2     O1 7756   6.069   4.055   1.817
  451TF2     O2 7757   5.868   4.161   1.905
  451TF2     N1 7758   5.995   4.286   1.726
  451TF2     S2 7759   6.136   4.341   1.678
  451TF2     O3 7760   6.242   4.243   1.653
  451TF2     O4 7761   6.180   4.461   1.748
  451TF2     C2 7762   6.082   4.397   1.512
  451TF2     F4 7763   6.183   4.455   1.441
  451TF2     F5 7764   5.983   4.490   1.519
  451TF2     F6 7765   6.034   4.295   1.435
  452TF2     C1 7766   1.994   6.506   2.210
  452TF2     F1 7767   2.073   6.459   2.310
  452TF2     F2 7768   1.941   6.625   2.250
  452TF2     F3 7769   1.888   6.419   2.204
  452TF2     S1 7770   2.078   6.518   2.046
  452TF2     O1 7771   2.151   6.393   2.025
  452TF2     O2 7772   1.970   6.537   1.949
  452TF2     N1 7773   2.167   6.649   2.060
  452TF2     S2 7774   2.264   6.652   2.185
  452TF2     O3 7775   2.346   6.534   2.210
  452TF2     O4 7776   2.204   6.710   2.305
  452TF2     C2 7777   2.379   6.779   2.122
  452TF2     F4 7778   2.479   6.809   2.210
  452TF2     F5 7779   2.316   6.897   2.093
  452TF2     F6 7780   2.440   6.740   2.006
  453TF2     C1 7781   1.360   6.440   1.312
  453TF2     F1 7782   1.308   6.419   1.188
  453TF2     F2 7783   1.266   6.403   1.403
  453TF2     F3 7784   1.373   6.575   1.325
  453TF2     S1 7785   1.521   6.355   1.341
  453TF2     O1 7786   1.606   6.382   1.225
  453TF2     O2 7787   1.574   6.416   1.464
  453TF2     N1 7788   1.481   6.203   1.364
  453TF2     S2 7789   1.392   6.140   1.250
  453TF2     O3 7790   1.435   6.159   1.111
  453TF2     O4 7791   1.248   6.155   1.270
  453TF2     C2 7792   1.428   5.964   1.288
  453TF2     F4 7793   1.362   5.878   1.205
  453TF2     F5 7794   1.392   5.931   1.415
  453TF2     F6 7795   1.561   5.935   1.277
  454TF2     C1 7796   6.445   0.409   0.685
  454TF2     F1 7797   6.485   0.483   0.578
  454TF2     F2 7798   6.558   0.360   0.745
  454TF2     F3 7799   6.382   0.300   0.632
  454TF2     S1 7800   6.337   0.498   0.804
  454TF2     O1 7801   6.233   0.567   0.725
  454TF2     O2 7802   6.281   0.393   0.890
  454TF2     N1 7803   6.437   0.592   0.884
  454TF2     S2 7804   6.528   0.685   0.794
  454TF2     O3 7805   6.463   0.762   0.688
  454TF2     O4 7806   6.655   0.625   0.755
  454TF2     C2 7807   6.569   0.807   0.924
  454TF2     F4 7808   6.653   0.906   0.879
  454TF2     F5 7809   6.632   0.750   1.031
  454TF2     F6 7810   6.459   0.870   0.974
  455TF2     C1 7811   3.469   3.477   4.523
  455TF2     F1 7812   3.395   3.439   4.630
  455TF2     F2 7813   3.578   3.544   4.570
  455TF2     F3 7814   3.393   3.571   4.458
  455TF2     S1 7815   3.515   3.339   4.410
  455TF2     O1 7816   3.395   3.260   4.386
  455TF2     O2 7817   3.564   3.405   4.288
  455TF2     N1 7818   3.633   3.265   4.487
  455TF2     S2 7819   3.599   3.221   4.635
  455TF2     O3 7820   3.473   3.150   4.658
  455TF2     O4 7821   3.630   3.322   4.736
  455TF2     C2 7822   3.730   3.094   4.651
  455TF2     F4 7823   3.731   3.035   4.774
  455TF2     F5 7824   3.855   3.146   4.633
  455TF2     F6 7825   3.717   2.994   4.560
  456TF2     C1 7826   1.815   3.959   2.567
  456TF2     F1 7827   1.814   3.923   2.436
  456TF2     F2 7828   1.692   4.010   2.597
  456TF2     F3 7829   1.901   4.066   2.574
  456TF2     S1 7830   1.866   3.825   2.682
  456TF2     O1 7831   1.986   3.762   2.627
  456TF2     O2 7832   1.893   3.894   2.810
  456TF2     N1 7833   1.737   3.733   2.692
  456TF2     S2 7834   1.680   3.683   2.553
  456TF2     O3 7835   1.774   3.626   2.458
  456TF2     O4 7836   1.581   3.772   2.493
  456TF2     C2 7837   1.585   3.541   2.618
  456TF2     F4 7838   1.518   3.473   2.521
  456TF2     F5 7839   1.491   3.579   2.710
  456TF2     F6 7840   1.664   3.449   2.681
  457TF2     C1 7841   5.306   5.435   5.100
  457TF2     F1 7842   5.257   5.440   4.973
  457TF2     F2 7843   5.306   5.562   5.149
  457TF2     F3 7844   5.438   5.401   5.087
  457TF2     S1 7845   5.218   5.318   5.211
  457TF2     O1 7846   5.202   5.192   5.138
  457TF2     O2 7847   5.305   5.304   5.328
  457TF2     N1 7848   5.083   5.394   5.248
  457TF2     S2 7849   4.999   5.444   5.124
  457TF2     O3 7850   4.974   5.349   5.016
  457TF2     O4 7851   5.034   5.579   5.078
  457TF2     C2 7852   4.839   5.461   5.211
  457TF2     F4 7853   4.739   5.507   5.130
  457TF2     F5 7854   4.847   5.549   5.316
  457TF2     F6 7855   4.795   5.343   5.263
  458TF2     C1 7856   4.099   5.883   0.491
  458TF2     F1 7857   4.084   5.910   0.623
  458TF2     F2 7858   4.226   5.835   0.473
  458TF2     F3 7859   4.097   6.005   0.428
  458TF2     S1 7860   3.972   5.770   0.420
  458TF2     O1 7861   3.841   5.818   0.466
  458TF2     O2 7862   3.988   5.782   0.275
  458TF2     N1 7863   4.016   5.627   0.472
  458TF2     S2 7864   4.036   5.615   0.628
  458TF2     O3 7865   3.930   5.668   0.715
  458TF2     O4 7866   4.171   5.645   0.674
  458TF2     C2 7867   4.020   5.433   0.640
  458TF2     F4 7868   4.035   5.386   0.767
  458TF2     F5 7869   4.113   5.368   0.564
  458TF2     F6 7870   3.898   5.388   0.596
  459TF2     C1 7871   2.537   4.757   5.599
  459TF2     F1 7872   2.407   4.776   5.634
  459TF2     F2 7873   2.612   4.846   5.670
  459TF2     F3 7874   2.546   4.798   5.469
  459TF2     S1 7875   2.597   4.584   5.619
  459TF2     O1 7876   2.496   4.496   5.559
  459TF2     O2 7877   2.725   4.580   5.546
  459TF2     N1 7878   2.619   4.569   5.775
  459TF2     S2 7879   2.494   4.607   5.864
  459TF2     O3 7880   2.365   4.550   5.827
  459TF2     O4 7881   2.489   4.748   5.904
  459TF2     C2 7882   2.546   4.516   6.014
  459TF2     F4 7883   2.458   4.529   6.118
  459TF2     F5 7884   2.667   4.559   6.062
  459TF2     F6 7885   2.560   4.382   5.992
  460TF2     C1 7886   5.813   3.404   3.830
  460TF2     F1 7887   5.935   3.429   3.777
  460TF2     F2 7888   5.724   3.392   3.727
  460TF2     F3 7889   5.777   3.519   3.896
  460TF2     S1 7890   5.808   3.259   3.943
  460TF2     O1 7891   5.922   3.270   4.034
  460TF2     O2 7892   5.679   3.270   4.013
  460TF2     N1 7893   5.810   3.134   3.845
  460TF2     S2 7894   5.928   3.133   3.740
  460TF2     O3 7895   6.063   3.158   3.791
  460TF2     O4 7896   5.898   3.201   3.614
  460TF2     C2 7897   5.924   2.954   3.703
  460TF2     F4 7898   6.016   2.917   3.609
  460TF2     F5 7899   5.802   2.915   3.654
  460TF2     F6 7900   5.946   2.877   3.813
  461TF2     C1 7901   0.229   2.297   3.812
  461TF2     F1 7902   0.288   2.410   3.766
  461TF2     F2 7903   0.312   2.241   3.904
  461TF2     F3 7904   0.227   2.210   3.706
  461TF2     S1 7905   0.059   2.323   3.879
  461TF2     O1 7906  -0.014   2.404   3.782
  461TF2     O2 7907   0.003   2.187   3.892
  461TF2     N1 7908   0.084   2.389   4.021
  461TF2     S2 7909   0.175   2.518   4.020
  461TF2     O3 7910   0.144   2.622   3.922
  461TF2     O4 7911   0.318   2.491   4.035
  461TF2     C2 7912   0.120   2.586   4.181
  461TF2     F4 7913   0.184   2.702   4.214
  461TF2     F5 7914   0.143   2.499   4.284
  461TF2     F6 7915  -0.014   2.613   4.183
  462TF2     C1 7916   2.665   1.525   0.850
  462TF2     F1 7917   2.542   1.564   0.807
  462TF2     F2 7918   2.754   1.550   0.748
  462TF2     F3 7919   2.658   1.389   0.860
  462TF2     S1 7920   2.719   1.601   1.009
  462TF2     O1 7921   2.606   1.589   1.102
  462TF2     O2 7922   2.835   1.521   1.051
  462TF2     N1 7923   2.761   1.748   0.968
  462TF2     S2 7924   2.651   1.830   0.889
  462TF2     O3 7925   2.515   1.831   0.943
  462TF2     O4 7926   2.658   1.815   0.744
  462TF2     C2 7927   2.717   1.997   0.924
  462TF2     F4 7928   2.644   2.096   0.866
  462TF2     F5 7929   2.845   2.012   0.879
  462TF2     F6 7930   2.721   2.025   1.058
  463TF2     C1 7931   5.067   4.310   0.710
  463TF2     F1 7932   5.111   4.369   0.596
  463TF2     F2 7933   5.068   4.403   0.809
  463TF2     F3 7934   5.164   4.219   0.744
  463TF2     S1 7935   4.903   4.228   0.693
  463TF2     O1 7936   4.906   4.148   0.570
  463TF2     O2 7937   4.890   4.144   0.814
  463TF2     N1 7938   4.800   4.348   0.695
  463TF2     S2 7939   4.828   4.462   0.589
  463TF2     O3 7940   4.854   4.422   0.451
  463TF2     O4 7941   4.916   4.569   0.638
  463TF2     C2 7942   4.660   4.534   0.588
  463TF2     F4 7943   4.648   4.641   0.505
  463TF2     F5 7944   4.621   4.577   0.712
  463TF2     F6 7945   4.565   4.444   0.548
  464TF2     C1 7946   2.251   0.108   0.661
  464TF2     F1 7947   2.216   0.149   0.536
  464TF2     F2 7948   2.379   0.063   0.655
  464TF2     F3 7949   2.174  -0.003   0.685
  464TF2     S1 7950   2.227   0.235   0.792
  464TF2     O1 7951   2.093   0.293   0.773
  464TF2     O2 7952   2.238   0.161   0.918
  464TF2     N1 7953   2.349   0.334   0.771
  464TF2     S2 7954   2.365   0.392   0.625
  464TF2     O3 7955   2.246   0.447   0.560
  464TF2     O4 7956   2.448   0.310   0.537
  464TF2     C2 7957   2.467   0.537   0.669
  464TF2     F4 7958   2.503   0.612   0.560
  464TF2     F5 7959   2.584   0.501   0.730
  464TF2     F6 7960   2.404   0.622   0.755
  465TF2     C1 7961   5.645   4.648   3.991
  465TF2     F1 7962   5.565   4.704   3.896
  465TF2     F2 7963   5.759   4.723   3.999
  465TF2     F3 7964   5.685   4.528   3.938
  465TF2     S1 7965   5.565   4.625   4.155
  465TF2     O1 7966   5.433   4.565   4.130
  465TF2     O2 7967   5.655   4.536   4.229
  465TF2     N1 7968   5.564   4.771   4.217
  465TF2     S2 7969   5.499   4.883   4.125
  465TF2     O3 7970   5.368   4.854   4.066
  465TF2     O4 7971   5.593   4.949   4.035
  465TF2     C2 7972   5.465   5.004   4.258
  465TF2     F4 7973   5.408   5.119   4.212
  465TF2     F5 7974   5.579   5.041   4.324
  465TF2     F6 7975   5.381   4.955   4.354
  466TF2     C1 7976   2.670   2.967   6.495
  466TF2     F1 7977   2.710   2.842   6.529
  466TF2     F2 7978   2.755   3.056   6.553
  466TF2     F3 7979   2.549   2.985   6.557
  466TF2     S1 7980   2.655   2.994   6.313
  466TF2     O1 7981   2.581   2.880   6.258
  466TF2     O2 7982   2.580   3.120   6.300
  466TF2     N1 7983   2.805   3.011   6.265
  466TF2     S2 7984   2.902   2.893   6.306
  466TF2     O3 7985   2.857   2.756   6.282
  466TF2     O4 7986   2.968   2.913   6.436
  466TF2     C2 7987   3.031   2.925   6.181
  466TF2     F4 7988   3.136   2.838   6.190
  466TF2     F5 7989   3.084   3.050   6.191
  466TF2     F6 7990   2.984   2.914   6.053
  467TF2     C1 7991   1.653   4.027   5.158
  467TF2     F1 7992   1.577   4.116   5.227
  467TF2     F2 7993   1.722   4.097   5.063
  467TF2     F3 7994   1.565   3.949   5.089
  467TF2     S1 7995   1.764   3.925   5.264
  467TF2     O1 7996   1.683   3.875   5.376
  467TF2     O2 7997   1.810   3.817   5.176
  467TF2     N1 7998   1.882   4.024   5.302
  467TF2     S2 7999   1.837   4.161   5.366
  467TF2     O3 8000   1.740   4.156   5.476
  467TF2     O4 8001   1.812   4.267   5.269
  467TF2     C2 8002   1.997   4.202   5.445
  467TF2     F4 8003   1.994   4.322   5.510
  467TF2     F5 8004   2.098   4.211   5.354
  467TF2     F6 8005   2.036   4.109   5.536
  468TF2     C1 8006   2.078   5.127   2.291
  468TF2     F1 8007   2.068   5.220   2.193
  468TF2     F2 8008   1.952   5.078   2.314
  468TF2     F3 8009   2.111   5.196   2.405
  468TF2     S1 8010   2.199   4.993   2.257
  468TF2     O1 8011   2.323   5.057   2.210
  468TF2     O2 8012   2.217   4.924   2.386
  468TF2     N1 8013   2.125   4.900   2.152
  468TF2     S2 8014   2.070   4.975   2.023
  468TF2     O3 8015   2.161   5.065   1.953
  468TF2     O4 8016   1.934   5.026   2.037
  468TF2     C2 8017   2.057   4.828   1.916
  468TF2     F4 8018   2.008   4.857   1.792
  468TF2     F5 8019   1.974   4.733   1.968
  468TF2     F6 8020   2.177   4.766   1.896
  469TF2     C1 8021   0.623   1.063   4.044
  469TF2     F1 8022   0.671   1.075   4.171
  469TF2     F2 8023   0.707   1.132   3.961
  469TF2     F3 8024   0.506   1.134   4.043
  469TF2     S1 8025   0.597   0.889   3.989
  469TF2     O1 8026   0.526   0.820   4.096
  469TF2     O2 8027   0.516   0.901   3.867
  469TF2     N1 8028   0.744   0.838   3.957
  469TF2     S2 8029   0.848   0.855   4.074
  469TF2     O3 8030   0.808   0.811   4.208
  469TF2     O4 8031   0.920   0.983   4.072
  469TF2     C2 8032   0.969   0.731   4.016
  469TF2     F4 8033   1.078   0.721   4.097
  469TF2     F5 8034   1.016   0.759   3.891
  469TF2     F6 8035   0.915   0.605   4.008
  470TF2     C1 8036   4.321   6.665   0.284
  470TF2     F1 8037   4.348   6.748   0.180
  470TF2     F2 8038   4.327   6.537   0.238
  470TF2     F3 8039   4.189   6.687   0.315
  470TF2     S1 8040   4.428   6.691   0.432
  470TF2     O1 8041   4.433   6.835   0.458
  470TF2     O2 8042   4.361   6.617   0.540
  470TF2     N1 8043   4.565   6.622   0.391
  470TF2     S2 8044   4.627   6.673   0.255
  470TF2     O3 8045   4.636   6.817   0.234
  470TF2     O4 8046   4.584   6.597   0.138
  470TF2     C2 8047   4.799   6.619   0.287
  470TF2     F4 8048   4.884   6.646   0.184
  470TF2     F5 8049   4.808   6.484   0.309
  470TF2     F6 8050   4.853   6.678   0.398
  471TF2     C1 8051   2.055   3.245   4.193
  471TF2     F1 8052   1.974   3.352   4.214
  471TF2     F2 8053   2.101   3.252   4.065
  471TF2     F3 8054   1.972   3.136   4.197
  471TF2     S1 8055   2.192   3.228   4.315
  471TF2     O1 8056   2.134   3.246   4.449
  471TF2     O2 8057   2.244   3.092   4.295
  471TF2     N1 8058   2.297   3.338   4.269
  471TF2     S2 8059   2.239   3.484   4.254
  471TF2     O3 8060   2.158   3.537   4.364
  471TF2     O4 8061   2.186   3.515   4.121
  471TF2     C2 8062   2.398   3.573   4.266
  471TF2     F4 8063   2.384   3.709   4.254
  471TF2     F5 8064   2.486   3.535   4.168
  471TF2     F6 8065   2.462   3.551   4.384
  472TF2     C1 8066   3.299   4.014   5.458
  472TF2     F1 8067   3.287   4.038   5.325
  472TF2     F2 8068   3.373   3.901   5.473
  472TF2     F3 8069   3.173   3.981   5.501
  472TF2     S1 8070   3.367   4.155   5.555
  472TF2     O1 8071   3.295   4.276   5.513
  472TF2     O2 8072   3.340   4.120   5.695
  472TF2     N1 8073   3.522   4.152   5.523
  472TF2     S2 8074   3.559   4.153   5.369
  472TF2     O3 8075   3.493   4.253   5.285
  472TF2     O4 8076   3.569   4.020   5.309
  472TF2     C2 8077   3.731   4.212   5.388
  472TF2     F4 8078   3.797   4.223   5.269
  472TF2     F5 8079   3.806   4.128   5.465
  472TF2     F6 8080   3.738   4.334   5.447
  473TF2     C1 8081   0.168   0.122   3.152
  473TF2     F1 8082   0.227   0.205   3.062
  473TF2     F2 8083   0.203  -0.006   3.121
  473TF2     F3 8084   0.034   0.130   3.126
  473TF2     S1 8085   0.204   0.163   3.328
  473TF2     O1 8086   0.185   0.307   3.344
  473TF2     O2 8087   0.106   0.085   3.406
  473TF2     N1 8088   0.351   0.109   3.350
  473TF2     S2 8089   0.458   0.161   3.246
  473TF2     O3 8090   0.462   0.305   3.220
  473TF2     O4 8091   0.472   0.078   3.127
  473TF2     C2 8092   0.607   0.127   3.347
  473TF2     F4 8093   0.723   0.160   3.284
  473TF2     F5 8094   0.617  -0.005   3.380
  473TF2     F6 8095   0.607   0.195   3.466
  474TF2     C1 8096   5.747   2.885   2.035
  474TF2     F1 8097   5.793   2.908   2.161
  474TF2     F2 8098   5.844   2.816   1.968
  474TF2     F3 8099   5.742   3.008   1.975
  474TF2     S1 8100   5.583   2.801   2.028
  474TF2     O1 8101   5.495   2.870   2.122
  474TF2     O2 8102   5.539   2.816   1.889
  474TF2     N1 8103   5.617   2.650   2.063
  474TF2     S2 8104   5.698   2.628   2.197
  474TF2     O3 8105   5.649   2.696   2.317
  474TF2     O4 8106   5.843   2.631   2.181
  474TF2     C2 8107   5.654   2.452   2.221
  474TF2     F4 8108   5.712   2.397   2.332
  474TF2     F5 8109   5.694   2.374   2.115
  474TF2     F6 8110   5.520   2.432   2.233
  475TF2     C1 8111   3.953   3.673   5.498
  475TF2     F1 8112   3.881   3.640   5.609
  475TF2     F2 8113   4.079   3.707   5.539
  475TF2     F3 8114   3.897   3.788   5.451
  475TF2     S1 8115   3.956   3.542   5.368
  475TF2     O1 8116   3.818   3.497   5.350
  475TF2     O2 8117   4.008   3.610   5.248
  475TF2     N1 8118   4.058   3.435   5.424
  475TF2     S2 8119   4.027   3.382   5.570
  475TF2     O3 8120   3.890   3.340   5.599
  475TF2     O4 8121   4.090   3.461   5.677
  475TF2     C2 8122   4.124   3.228   5.560
  475TF2     F4 8123   4.121   3.155   5.675
  475TF2     F5 8124   4.256   3.251   5.533
  475TF2     F6 8125   4.080   3.145   5.461
  476TF2     C1 8126   4.008   1.527   4.928
  476TF2     F1 8127   3.999   1.577   5.054
  476TF2     F2 8128   4.089   1.418   4.931
  476TF2     F3 8129   4.077   1.622   4.857
  476TF2     S1 8130   3.845   1.491   4.849
  476TF2     O1 8131   3.759   1.607   4.873
  476TF2     O2 8132   3.876   1.472   4.707
  476TF2     N1 8133   3.800   1.355   4.918
  476TF2     S2 8134   3.799   1.357   5.076
  476TF2     O3 8135   3.733   1.469   5.142
  476TF2     O4 8136   3.925   1.316   5.137
  476TF2     C2 8137   3.686   1.215   5.099
  476TF2     F4 8138   3.663   1.185   5.230
  476TF2     F5 8139   3.734   1.100   5.042
  476TF2     F6 8140   3.563   1.236   5.042
  477TF2     C1 8141   3.667   5.629   2.054
  477TF2     F1 8142   3.620   5.616   1.927
  477TF2     F2 8143   3.786   5.695   2.048
  477TF2     F3 8144   3.697   5.502   2.095
  477TF2     S1 8145   3.549   5.709   2.171
  477TF2     O1 8146   3.418   5.646   2.151
  477TF2     O2 8147   3.604   5.683   2.304
  477TF2     N1 8148   3.558   5.863   2.134
  477TF2     S2 8149   3.534   5.897   1.981
  477TF2     O3 8150   3.417   5.838   1.916
  477TF2     O4 8151   3.655   5.896   1.899
  477TF2     C2 8152   3.492   6.074   2.004
  477TF2     F4 8153   3.466   6.138   1.886
  477TF2     F5 8154   3.593   6.144   2.064
  477TF2     F6 8155   3.382   6.092   2.082
  478TF2     C1 8156   0.301   4.168   0.939
  478TF2     F1 8157   0.299   4.132   0.808
  478TF2     F2 8158   0.231   4.073   1.009
  478TF2     F3 8159   0.225   4.282   0.947
  478TF2     S1 8160   0.469   4.195   1.008
  478TF2     O1 8161   0.542   4.279   0.913
  478TF2     O2 8162   0.447   4.263   1.137
  478TF2     N1 8163   0.526   4.049   1.030
  478TF2     S2 8164   0.521   3.955   0.902
  478TF2     O3 8165   0.572   4.010   0.776
  478TF2     O4 8166   0.397   3.879   0.888
  478TF2     C2 8167   0.647   3.835   0.957
  478TF2     F4 8168   0.667   3.734   0.867
  478TF2     F5 8169   0.612   3.775   1.075
  478TF2     F6 8170   0.769   3.893   0.978
  479TF2     C1 8171   4.290   6.645   4.801
  479TF2     F1 8172   4.381   6.673   4.899
  479TF2     F2 8173   4.311   6.732   4.698
  479TF2     F3 8174   4.168   6.679   4.854
  479TF2     S1 8175   4.291   6.469   4.745
  479TF2     O1 8176   4.292   6.385   4.865
  479TF2     O2 8177   4.167   6.454   4.667
  479TF2     N1 8178   4.419   6.460   4.652
  479TF2     S2 8179   4.554   6.509   4.719
  479TF2     O3 8180   4.586   6.458   4.853
  479TF2     O4 8181   4.582   6.651   4.701
  479TF2     C2 8182   4.668   6.421   4.606
  479TF2     F4 8183   4.799   6.445   4.635
  479TF2     F5 8184   4.650   6.459   4.476
  479TF2     F6 8185   4.651   6.286   4.609
  480TF2     C1 8186   0.282   0.788   0.711
  480TF2     F1 8187   0.246   0.685   0.792
  480TF2     F2 8188   0.279   0.903   0.785
  480TF2     F3 8189   0.181   0.800   0.620
  480TF2     S1 8190   0.444   0.764   0.626
  480TF2     O1 8191   0.446   0.629   0.571
  480TF2     O2 8192   0.447   0.867   0.521
  480TF2     N1 8193   0.551   0.795   0.740
  480TF2     S2 8194   0.533   0.711   0.873
  480TF2     O3 8195   0.514   0.566   0.860
  480TF2     O4 8196   0.446   0.774   0.972
  480TF2     C2 8197   0.703   0.732   0.936
  480TF2     F4 8198   0.723   0.671   1.057
  480TF2     F5 8199   0.736   0.863   0.954
  480TF2     F6 8200   0.797   0.681   0.852
  481TF2     C1 8201   0.250   3.912   2.649
  481TF2     F1 8202   0.375   3.962   2.667
  481TF2     F2 8203   0.262   3.780   2.616
  481TF2     F3 8204   0.203   3.973   2.535
  481TF2     S1 8205   0.136   3.939   2.790
  481TF2     O1 8206   0.149   4.079   2.831
  481TF2     O2 8207   0.002   3.908   2.737
  481TF2     N1 8208   0.182   3.830   2.897
  481TF2     S2 8209   0.335   3.834   2.934
  481TF2     O3 8210   0.394   3.964   2.967
  481TF2     O4 8211   0.420   3.750   2.849
  481TF2     C2 8212   0.322   3.745   3.093
  481TF2     F4 8213   0.443   3.728   3.154
  481TF2     F5 8214   0.269   3.620   3.078
  481TF2     F6 8215   0.243   3.810   3.183
  482TF2     C1 8216   4.150   1.997   6.275
  482TF2     F1 8217   4.177   1.884   6.205
  482TF2     F2 8218   4.016   2.023   6.262
  482TF2     F3 8219   4.213   2.098   6.207
  482TF2     S1 8220   4.203   1.992   6.451
  482TF2     O1 8221   4.340   1.941   6.454
  482TF2     O2 8222   4.195   2.132   6.497
  482TF2     N1 8223   4.092   1.902   6.521
  482TF2     S2 8224   4.070   1.761   6.455
  482TF2     O3 8225   4.188   1.680   6.425
  482TF2     O4 8226   3.968   1.759   6.349
  482TF2     C2 8227   3.991   1.680   6.599
  482TF2     F4 8228   3.955   1.551   6.575
  482TF2     F5 8229   3.878   1.745   6.639
  482TF2     F6 8230   4.073   1.677   6.708
  483TF2     C1 8231   0.746   1.520   5.527
  483TF2     F1 8232   0.774   1.538   5.395
  483TF2     F2 8233   0.675   1.404   5.540
  483TF2     F3 8234   0.658   1.620   5.560
  483TF2     S1 8235   0.894   1.523   5.637
  483TF2     O1 8236   0.974   1.639   5.598
  483TF2     O2 8237   0.839   1.536   5.773
  483TF2     N1 8238   0.960   1.381   5.614
  483TF2     S2 8239   0.990   1.344   5.464
  483TF2     O3 8240   1.059   1.444   5.381
  483TF2     O4 8241   0.880   1.275   5.396
  483TF2     C2 8242   1.116   1.215   5.497
  483TF2     F4 8243   1.164   1.157   5.383
  483TF2     F5 8244   1.066   1.113   5.573
  483TF2     F6 8245   1.224   1.263   5.564
  484TF2     C1 8246   3.620   4.102   1.015
  484TF2     F1 8247   3.598   3.968   1.009
  484TF2     F2 8248   3.652   4.134   1.144
  484TF2     F3 8249   3.498   4.161   0.992
  484TF2     S1 8250   3.746   4.164   0.895
  484TF2     O1 8251   3.715   4.104   0.765
  484TF2     O2 8252   3.730   4.310   0.895
  484TF2     N1 8253   3.884   4.121   0.960
  484TF2     S2 8254   3.896   3.968   0.997
  484TF2     O3 8255   3.858   3.870   0.895
  484TF2     O4 8256   3.850   3.934   1.132
  484TF2     C2 8257   4.079   3.960   1.004
  484TF2     F4 8258   4.126   3.837   1.037
  484TF2     F5 8259   4.130   4.047   1.096
  484TF2     F6 8260   4.137   3.994   0.885
  485TF2     C1 8261   1.988   4.651   0.184
  485TF2     F1 8262   2.040   4.626   0.307
  485TF2     F2 8263   1.875   4.726   0.201
  485TF2     F3 8264   1.945   4.530   0.137
  485TF2     S1 8265   2.106   4.730   0.067
  485TF2     O1 8266   2.232   4.655   0.075
  485TF2     O2 8267   2.042   4.718  -0.065
  485TF2     N1 8268   2.112   4.881   0.115
  485TF2     S2 8269   2.146   4.902   0.268
  485TF2     O3 8270   2.260   4.829   0.322
  485TF2     O4 8271   2.029   4.905   0.356
  485TF2     C2 8272   2.202   5.076   0.255
  485TF2     F4 8273   2.238   5.129   0.375
  485TF2     F5 8274   2.104   5.158   0.205
  485TF2     F6 8275   2.309   5.091   0.172
  486TF2     C1 8276   1.759   1.307   5.852
  486TF2     F1 8277   1.891   1.309   5.819
  486TF2     F2 8278   1.748   1.355   5.980
  486TF2     F3 8279   1.726   1.174   5.860
  486TF2     S1 8280   1.649   1.396   5.734
  486TF2     O1 8281   1.687   1.354   5.599
  486TF2     O2 8282   1.513   1.354   5.770
  486TF2     N1 8283   1.674   1.549   5.769
  486TF2     S2 8284   1.825   1.595   5.767
  486TF2     O3 8285   1.906   1.558   5.651
  486TF2     O4 8286   1.893   1.581   5.896
  486TF2     C2 8287   1.793   1.775   5.748
  486TF2     F4 8288   1.908   1.849   5.745
  486TF2     F5 8289   1.718   1.825   5.850
  486TF2     F6 8290   1.725   1.804   5.633
  487TF2     C1 8291   5.346   3.472   3.160
  487TF2     F1 8292   5.297   3.375   3.078
  487TF2     F2 8293   5.415   3.411   3.261
  487TF2     F3 8294   5.235   3.527   3.220
  487TF2     S1 8295   5.446   3.600   3.074
  487TF2     O1 8296   5.372   3.641   2.955
  487TF2     O2 8297   5.459   3.710   3.172
  487TF2     N1 8298   5.585   3.529   3.049
  487TF2     S2 8299   5.576   3.390   2.974
  487TF2     O3 8300   5.495   3.384   2.852
  487TF2     O4 8301   5.561   3.274   3.062
  487TF2     C2 8302   5.750   3.385   2.915
  487TF2     F4 8303   5.779   3.272   2.845
  487TF2     F5 8304   5.839   3.390   3.019
  487TF2     F6 8305   5.781   3.490   2.834
  488TF2     C1 8306   5.567   2.411   3.251
  488TF2     F1 8307   5.502   2.408   3.132
  488TF2     F2 8308   5.493   2.339   3.341
  488TF2     F3 8309   5.559   2.541   3.294
  488TF2     S1 8310   5.742   2.354   3.244
  488TF2     O1 8311   5.805   2.420   3.130
  488TF2     O2 8312   5.800   2.396   3.372
  488TF2     N1 8313   5.730   2.196   3.235
  488TF2     S2 8314   5.637   2.143   3.118
  488TF2     O3 8315   5.658   2.198   2.984
  488TF2     O4 8316   5.497   2.126   3.155
  488TF2     C2 8317   5.706   1.973   3.110
  488TF2     F4 8318   5.645   1.895   3.017
  488TF2     F5 8319   5.694   1.907   3.229
  488TF2     F6 8320   5.839   1.972   3.080
  489TF2     C1 8321   1.480   5.032   2.799
  489TF2     F1 8322   1.407   5.146   2.817
  489TF2     F2 8323   1.544   5.043   2.679
  489TF2     F3 8324   1.388   4.932   2.783
  489TF2     S1 8325   1.596   4.994   2.937
  489TF2     O1 8326   1.521   5.009   3.062
  489TF2     O2 8327   1.637   4.855   2.914
  489TF2     N1 8328   1.716   5.095   2.915
  489TF2     S2 8329   1.674   5.247   2.904
  489TF2     O3 8330   1.583   5.301   3.005
  489TF2     O4 8331   1.644   5.291   2.767
  489TF2     C2 8332   1.837   5.319   2.944
  489TF2     F4 8333   1.838   5.455   2.941
  489TF2     F5 8334   1.934   5.278   2.857
  489TF2     F6 8335   1.881   5.283   3.068
  490TF2     C1 8336   2.367   1.205   5.519
  490TF2     F1 8337   2.311   1.204   5.395
  490TF2     F2 8338   2.388   1.076   5.557
  490TF2     F3 8339   2.269   1.252   5.603
  490TF2     S1 8340   2.520   1.307   5.532
  490TF2     O1 8341   2.493   1.435   5.467
  490TF2     O2 8342   2.544   1.321   5.677
  490TF2     N1 8343   2.631   1.217   5.464
  490TF2     S2 8344   2.597   1.167   5.318
  490TF2     O3 8345   2.549   1.266   5.222
  490TF2     O4 8346   2.526   1.039   5.313
  490TF2     C2 8347   2.769   1.130   5.266
  490TF2     F4 8348   2.776   1.080   5.139
  490TF2     F5 8349   2.828   1.037   5.347
  490TF2     F6 8350   2.849   1.240   5.269
  491TF2     C1 8351   3.665   6.208   3.321
  491TF2     F1 8352   3.632   6.195   3.452
  491TF2     F2 8353   3.796   6.247   3.315
  491TF2     F3 8354   3.593   6.316   3.276
  491TF2     S1 8355   3.632   6.058   3.219
  491TF2     O1 8356   3.497   6.012   3.252
  491TF2     O2 8357   3.643   6.104   3.080
  491TF2     N1 8358   3.750   5.960   3.257
  491TF2     S2 8359   3.768   5.932   3.412
  491TF2     O3 8360   3.649   5.897   3.489
  491TF2     O4 8361   3.858   6.026   3.480
  491TF2     C2 8362   3.863   5.777   3.397
  491TF2     F4 8363   3.898   5.724   3.517
  491TF2     F5 8364   3.979   5.793   3.327
  491TF2     F6 8365   3.793   5.679   3.331
  492TF2     C1 8366   6.656   6.631   6.065
  492TF2     F1 8367   6.526   6.624   6.026
  492TF2     F2 8368   6.660   6.697   6.184
  492TF2     F3 8369   6.717   6.715   5.975
  492TF2     S1 8370   6.741   6.468   6.073
  492TF2     O1 8371   6.710   6.397   5.949
  492TF2     O2 8372   6.884   6.501   6.084
  492TF2     N1 8373   6.687   6.403   6.206
  492TF2     S2 8374   6.529   6.395   6.218
  492TF2     O3 8375   6.455   6.343   6.103
  492TF2     O4 8376   6.468   6.513   6.280
  492TF2     C2 8377   6.522   6.264   6.345
  492TF2     F4 8378   6.394   6.233   6.382
  492TF2     F5 8379   6.587   6.299   6.459
  492TF2     F6 8380   6.579   6.147   6.303
  493TF2     C1 8381   5.991   6.326   3.876
  493TF2     F1 8382   6.084   6.249   3.815
  493TF2     F2 8383   5.940   6.411   3.782
  493TF2     F3 8384   6.060   6.406   3.963
  493TF2     S1 8385   5.859   6.232   3.964
  493TF2     O1 8386   5.925   6.128   4.043
  493TF2     O2 8387   5.791   6.332   4.048
  493TF2     N1 8388   5.765   6.181   3.847
  493TF2     S2 8389   5.839   6.101   3.732
  493TF2     O3 8390   5.931   5.994   3.771
  493TF2     O4 8391   5.887   6.185   3.622
  493TF2     C2 8392   5.691   6.015   3.666
  493TF2     F4 8393   5.719   5.935   3.559
  493TF2     F5 8394   5.595   6.103   3.624
  493TF2     F6 8395   5.631   5.935   3.759
  494TF2     C1 8396   0.117   4.928   0.491
  494TF2     F1 8397   0.192   4.819   0.520
  494TF2     F2 8398  -0.014   4.896   0.512
  494TF2     F3 8399   0.129   4.946   0.356
  494TF2     S1 8400   0.166   5.081   0.583
  494TF2     O1 8401   0.311   5.092   0.572
  494TF2     O2 8402   0.096   5.190   0.513
  494TF2     N1 8403   0.108   5.058   0.728
  494TF2     S2 8404   0.151   4.923   0.797
  494TF2     O3 8405   0.293   4.887   0.795
  494TF2     O4 8406   0.061   4.810   0.771
  494TF2     C2 8407   0.117   4.973   0.970
  494TF2     F4 8408   0.142   4.874   1.060
  494TF2     F5 8409  -0.014   5.009   0.988
  494TF2     F6 8410   0.191   5.081   1.008
  495TF2     C1 8411   6.025   5.671   0.144
  495TF2     F1 8412   6.086   5.773   0.210
  495TF2     F2 8413   5.968   5.589   0.237
  495TF2     F3 8414   6.127   5.597   0.089
  495TF2     S1 8415   5.905   5.725   0.015
  495TF2     O1 8416   5.971   5.829  -0.064
  495TF2     O2 8417   5.878   5.604  -0.064
  495TF2     N1 8418   5.778   5.769   0.098
  495TF2     S2 8419   5.806   5.876   0.211
  495TF2     O3 8420   5.885   5.993   0.176
  495TF2     O4 8421   5.840   5.817   0.342
  495TF2     C2 8422   5.634   5.937   0.228
  495TF2     F4 8423   5.621   6.033   0.324
  495TF2     F5 8424   5.547   5.837   0.262
  495TF2     F6 8425   5.587   5.991   0.112
  496TF2     C1 8426   1.501   0.436   3.407
  496TF2     F1 8427   1.490   0.348   3.303
  496TF2     F2 8428   1.565   0.547   3.360
  496TF2     F3 8429   1.590   0.377   3.494
  496TF2     S1 8430   1.343   0.476   3.490
  496TF2     O1 8431   1.273   0.350   3.514
  496TF2     O2 8432   1.382   0.543   3.616
  496TF2     N1 8433   1.272   0.577   3.391
  496TF2     S2 8434   1.257   0.525   3.242
  496TF2     O3 8435   1.204   0.391   3.222
  496TF2     O4 8436   1.371   0.558   3.156
  496TF2     C2 8437   1.123   0.639   3.192
  496TF2     F4 8438   1.085   0.622   3.062
  496TF2     F5 8439   1.159   0.770   3.205
  496TF2     F6 8440   1.010   0.623   3.267
  497TF2     C1 8441   4.197   4.015   3.172
  497TF2     F1 8442   4.207   3.927   3.069
  497TF2     F2 8443   4.072   4.070   3.167
  497TF2     F3 8444   4.283   4.117   3.141
  497TF2     S1 8445   4.234   3.944   3.338
  497TF2     O1 8446   4.359   3.867   3.325
  497TF2     O2 8447   4.249   4.060   3.426
  497TF2     N1 8448   4.105   3.860   3.373
  497TF2     S2 8449   4.061   3.754   3.264
  497TF2     O3 8450   4.164   3.665   3.211
  497TF2     O4 8451   3.969   3.807   3.163
  497TF2     C2 8452   3.959   3.650   3.374
  497TF2     F4 8453   3.900   3.545   3.308
  497TF2     F5 8454   3.856   3.720   3.432
  497TF2     F6 8455   4.030   3.596   3.477
  498TF2     C1 8456   4.278   4.476   1.341
  498TF2     F1 8457   4.308   4.429   1.217
  498TF2     F2 8458   4.376   4.435   1.426
  498TF2     F3 8459   4.165   4.408   1.380
  498TF2     S1 8460   4.251   4.658   1.349
  498TF2     O1 8461   4.162   4.694   1.238
  498TF2     O2 8462   4.189   4.681   1.480
  498TF2     N1 8463   4.398   4.718   1.343
  498TF2     S2 8464   4.485   4.669   1.221
  498TF2     O3 8465   4.425   4.673   1.088
  498TF2     O4 8466   4.563   4.548   1.247
  498TF2     C2 8467   4.606   4.806   1.223
  498TF2     F4 8468   4.702   4.794   1.127
  498TF2     F5 8469   4.672   4.815   1.342
  498TF2     F6 8470   4.548   4.928   1.203
  499TF2     C1 8471   0.411   4.325   2.659
  499TF2     F1 8472   0.478   4.409   2.741
  499TF2     F2 8473   0.435   4.197   2.701
  499TF2     F3 8474   0.472   4.335   2.537
  499TF2     S1 8475   0.230   4.360   2.645
  499TF2     O1 8476   0.216   4.504   2.623
  499TF2     O2 8477   0.185   4.281   2.529
  499TF2     N1 8478   0.170   4.304   2.781
  499TF2     S2 8479   0.239   4.358   2.912
  499TF2     O3 8480   0.259   4.503   2.924
  499TF2     O4 8481   0.352   4.278   2.959
  499TF2     C2 8482   0.102   4.319   3.027
  499TF2     F4 8483   0.129   4.353   3.156
  499TF2     F5 8484   0.071   4.186   3.028
  499TF2     F6 8485  -0.014   4.384   2.994
  500TF2     C1 8486   5.266   2.928   5.582
  500TF2     F1 8487   5.290   2.988   5.702
  500TF2     F2 8488   5.247   2.794   5.605
  500TF2     F3 8489   5.384   2.936   5.513
  500TF2     S1 8490   5.127   3.001   5.487
  500TF2     O1 8491   5.145   3.147   5.488
  500TF2     O2 8492   5.140   2.945   5.351
  500TF2     N1 8493   4.997   2.947   5.560
  500TF2     S2 8494   4.992   2.973   5.716
  500TF2     O3 8495   5.022   3.108   5.763
  500TF2     O4 8496   5.052   2.867   5.796
  500TF2     C2 8497   4.812   2.954   5.736
  500TF2     F4 8498   4.771   2.968   5.865
  500TF2     F5 8499   4.768   2.830   5.696
  500TF2     F6 8500   4.741   3.044   5.663
   6.90840   6.91340   6.90820
